/*--------------------------------*- C++ -*----------------------------------*\
| =========                 |                                                 |
| \\      /  F ield         | OpenFOAM: The Open Source CFD Toolbox           |
|  \\    /   O peration     | Version:  2412                                  |
|   \\  /    A nd           | Website:  www.openfoam.com                      |
|    \\/     M anipulation  |                                                 |
\*---------------------------------------------------------------------------*/
FoamFile
{
    version     2.0;
    format      ascii;
    arch        "LSB;label=32;scalar=64";
    class       volVectorField;
    location    "0";
    object      C;
}
// * * * * * * * * * * * * * * * * * * * * * * * * * * * * * * * * * * * * * //

dimensions      [0 1 0 0 0 0 0];

internalField   nonuniform List<vector> 
1728
(
(-3.91994 -3.91994 0)
(-3.75982 -3.91993 -5.47827e-18)
(-3.5997 -3.91992 9.63655e-20)
(-3.43956 -3.9199 1.85727e-18)
(-3.27943 -3.91987 0)
(-3.11929 -3.91984 3.61532e-18)
(-2.95914 -3.9198 -9.63495e-20)
(-2.799 -3.91975 0)
(-2.63886 -3.9197 9.63442e-20)
(-2.47872 -3.91964 0)
(-2.3186 -3.91957 0)
(-2.1585 -3.91949 3.69775e-18)
(-1.99844 -3.91941 -1.84746e-18)
(-1.83839 -3.91932 9.63231e-20)
(-1.67838 -3.91922 -3.59154e-18)
(-1.5184 -3.9191 0)
(-1.35846 -3.91896 9.62969e-20)
(-1.19855 -3.91881 0)
(-1.03867 -3.91864 0)
(-0.878816 -3.91843 -1.82874e-18)
(-0.718987 -3.91819 0)
(-0.559179 -3.91793 1.81861e-18)
(-0.399391 -3.91768 -7.06119e-18)
(-0.239624 -3.91747 1.71294e-18)
(-0.0798725 -3.91735 -1.9032e-18)
(0.0798725 -3.91735 -9.64072e-20)
(0.239624 -3.91747 -3.52234e-18)
(0.399391 -3.91768 1.81368e-18)
(0.559179 -3.91793 -9.65118e-20)
(0.718987 -3.91819 0)
(0.878816 -3.91843 1.82897e-18)
(1.03867 -3.91864 1.83303e-18)
(1.19855 -3.91881 5.41287e-18)
(1.35846 -3.91896 1.74288e-18)
(1.5184 -3.9191 -3.58725e-18)
(1.67838 -3.91922 -3.59166e-18)
(1.83839 -3.91932 0)
(1.99844 -3.91941 -1.84755e-18)
(2.1585 -3.91949 0)
(2.3186 -3.91957 0)
(2.47872 -3.91964 3.70346e-18)
(2.63886 -3.9197 0)
(2.799 -3.91975 -9.64002e-20)
(2.95914 -3.9198 0)
(3.11929 -3.91984 5.47123e-18)
(3.27943 -3.91987 -3.617e-18)
(3.43956 -3.9199 0)
(3.5997 -3.91992 9.63815e-20)
(3.75982 -3.91993 5.47829e-18)
(3.91994 -3.91994 0)
(-3.91993 -3.75982 5.47827e-18)
(-3.75979 -3.75979 0)
(-3.59965 -3.75975 0)
(-3.43951 -3.75969 0)
(-3.27935 -3.75961 5.47314e-18)
(-3.11919 -3.75951 0)
(-2.95903 -3.75939 0)
(-2.79886 -3.75925 1.9271e-19)
(-2.6387 -3.75909 -5.65434e-18)
(-2.47855 -3.75891 -3.70314e-18)
(-2.31841 -3.75871 0)
(-2.15831 -3.75849 -3.69834e-18)
(-1.99823 -3.75824 0)
(-1.83819 -3.75798 1.94276e-18)
(-1.67818 -3.75768 3.88237e-18)
(-1.51821 -3.75735 -1.92692e-19)
(-1.35828 -3.75696 -3.68201e-18)
(-1.19838 -3.75653 1.92676e-19)
(-1.03852 -3.75603 0)
(-0.87869 -3.75544 1.73596e-18)
(-0.718885 -3.75475 -3.6557e-18)
(-0.559096 -3.75398 -1.91895e-18)
(-0.399327 -3.7532 1.91352e-18)
(-0.239581 -3.75256 -1.90896e-18)
(-0.0798575 -3.75218 0)
(0.0798575 -3.75218 -1.92794e-19)
(0.239581 -3.75256 0)
(0.399327 -3.7532 5.54848e-18)
(0.559096 -3.75398 1.91923e-18)
(0.718885 -3.75475 -1.92441e-18)
(0.87869 -3.75544 3.66477e-18)
(1.03852 -3.75603 -1.73949e-18)
(1.19838 -3.75653 0)
(1.35828 -3.75696 -1.92813e-19)
(1.51821 -3.75735 0)
(1.67818 -3.75768 1.74849e-18)
(1.83819 -3.75798 1.92798e-19)
(1.99823 -3.75824 1.92787e-19)
(2.15831 -3.75849 3.69842e-18)
(2.31841 -3.75871 0)
(2.47855 -3.75891 -1.94799e-18)
(2.6387 -3.75909 5.65446e-18)
(2.79886 -3.75925 0)
(2.95903 -3.75939 0)
(3.11919 -3.75951 1.95213e-18)
(3.27935 -3.75961 -3.71303e-18)
(3.43951 -3.75969 0)
(3.59965 -3.75975 0)
(3.75979 -3.75979 1.92747e-19)
(3.91993 -3.75982 5.67102e-18)
(-3.91992 -3.5997 -9.63655e-20)
(-3.75975 -3.59965 0)
(-3.59958 -3.59958 0)
(-3.43941 -3.59948 3.71344e-18)
(-3.27922 -3.59935 1.92718e-19)
(-3.11903 -3.59918 1.92715e-19)
(-2.95883 -3.59898 -1.9271e-19)
(-2.79862 -3.59875 -4.0914e-18)
(-2.63842 -3.59848 3.5113e-18)
(-2.47824 -3.59818 0)
(-2.31808 -3.59786 0)
(-2.15796 -3.5975 3.89063e-18)
(-1.99787 -3.59711 0)
(-1.83783 -3.59669 0)
(-1.67783 -3.59622 -1.92705e-19)
(-1.51788 -3.59569 0)
(-1.35796 -3.5951 0)
(-1.19809 -3.59444 5.61863e-18)
(-1.03827 -3.59367 0)
(-0.878482 -3.59276 -1.93239e-18)
(-0.718715 -3.59165 0)
(-0.558956 -3.59036 3.65263e-18)
(-0.399213 -3.589 2.10865e-18)
(-0.239502 -3.58784 0)
(-0.0798282 -3.58716 -1.90699e-18)
(0.0798282 -3.58716 0)
(0.239502 -3.58784 -7.44931e-18)
(0.399213 -3.589 7.27977e-18)
(0.558956 -3.59036 0)
(0.718715 -3.59165 0)
(0.878482 -3.59276 0)
(1.03827 -3.59367 0)
(1.19809 -3.59444 3.87445e-18)
(1.35796 -3.5951 0)
(1.51788 -3.59569 0)
(1.67783 -3.59622 -1.74925e-18)
(1.83783 -3.59669 0)
(1.99787 -3.59711 -1.92782e-19)
(2.15796 -3.5975 3.69799e-18)
(2.31808 -3.59786 0)
(2.47824 -3.59818 0)
(2.63842 -3.59848 1.92763e-19)
(2.79862 -3.59875 0)
(2.95883 -3.59898 1.92763e-19)
(3.11903 -3.59918 -2.14433e-18)
(3.27922 -3.59935 -1.92755e-19)
(3.43941 -3.59948 -3.90621e-18)
(3.59958 -3.59958 0)
(3.75975 -3.59965 1.92744e-19)
(3.91992 -3.5997 1.92742e-19)
(-3.9199 -3.43956 -1.85727e-18)
(-3.75969 -3.43951 0)
(-3.59948 -3.43941 -3.71344e-18)
(-3.43926 -3.43926 0)
(-3.27903 -3.43907 -1.95159e-18)
(-3.11878 -3.43883 1.95066e-18)
(-2.95853 -3.43855 -1.75696e-18)
(-2.79827 -3.43821 -1.75582e-18)
(-2.63802 -3.43784 0)
(-2.47778 -3.43742 -1.94634e-18)
(-2.31759 -3.43697 1.94553e-18)
(-2.15745 -3.43648 1.92713e-19)
(-1.99736 -3.43597 -1.94403e-18)
(-1.83732 -3.43541 0)
(-1.67734 -3.4348 -3.69212e-18)
(-1.51741 -3.43411 5.43891e-18)
(-1.35752 -3.43335 0)
(-1.19769 -3.43251 -1.92726e-19)
(-1.03792 -3.43156 -7.36929e-18)
(-0.878203 -3.43041 -2.12991e-18)
(-0.718496 -3.42894 -1.92654e-19)
(-0.558775 -3.42709 0)
(-0.399049 -3.425 -1.92506e-19)
(-0.239377 -3.42312 0)
(-0.0797798 -3.422 7.23488e-18)
(0.0797798 -3.422 -2.09807e-18)
(0.239377 -3.42312 0)
(0.399049 -3.425 1.92998e-19)
(0.558775 -3.42709 1.92762e-18)
(0.718496 -3.42894 0)
(0.878203 -3.43041 -1.92826e-19)
(1.03792 -3.43156 0)
(1.19769 -3.43251 0)
(1.35752 -3.43335 0)
(1.51741 -3.43411 -1.94152e-18)
(1.67734 -3.4348 3.69219e-18)
(1.83732 -3.43541 -1.92784e-19)
(1.99736 -3.43597 5.63951e-18)
(2.15745 -3.43648 0)
(2.31759 -3.43697 2.13836e-18)
(2.47778 -3.43742 0)
(2.63802 -3.43784 0)
(2.79827 -3.43821 -3.89716e-18)
(2.95853 -3.43855 -1.94972e-18)
(3.11878 -3.43883 0)
(3.27903 -3.43907 1.95163e-18)
(3.43926 -3.43926 0)
(3.59948 -3.43941 -1.92747e-19)
(3.75969 -3.43951 0)
(3.9199 -3.43956 -5.6682e-18)
(-3.91987 -3.27943 0)
(-3.75961 -3.27935 -5.47314e-18)
(-3.59935 -3.27922 -1.92718e-19)
(-3.43907 -3.27903 -1.92715e-19)
(-3.27878 -3.27878 3.70871e-18)
(-3.11846 -3.27846 -7.41305e-18)
(-2.95814 -3.27808 0)
(-2.7978 -3.27764 5.45623e-18)
(-2.63748 -3.27715 1.94612e-18)
(-2.47718 -3.2766 -5.64242e-18)
(-2.31694 -3.27603 -5.64049e-18)
(-2.15677 -3.27542 1.94403e-18)
(-1.99668 -3.27479 -1.75106e-18)
(-1.83666 -3.27413 -1.94358e-18)
(-1.67671 -3.2734 1.94315e-18)
(-1.51681 -3.27259 0)
(-1.35696 -3.2717 0)
(-1.19718 -3.27075 1.94173e-18)
(-1.03749 -3.26971 1.94263e-18)
(-0.877872 -3.26849 -1.92789e-19)
(-0.718265 -3.2668 0)
(-0.558576 -3.26436 -1.9251e-19)
(-0.398833 -3.26125 -1.72903e-18)
(-0.239181 -3.25827 -3.43177e-18)
(-0.0797021 -3.25645 -1.92672e-19)
(0.0797021 -3.25645 0)
(0.239181 -3.25827 0)
(0.398833 -3.26125 1.92215e-18)
(0.558576 -3.26436 0)
(0.718265 -3.2668 -1.92848e-19)
(0.877872 -3.26849 -1.94363e-18)
(1.03749 -3.26971 0)
(1.19718 -3.27075 -1.92779e-19)
(1.35696 -3.2717 0)
(1.51681 -3.27259 0)
(1.67671 -3.2734 1.92787e-19)
(1.83666 -3.27413 0)
(1.99668 -3.27479 0)
(2.15677 -3.27542 -4.08096e-18)
(2.31694 -3.27603 1.92766e-19)
(2.47718 -3.2766 -1.94511e-18)
(2.63748 -3.27715 0)
(2.7978 -3.27764 0)
(2.95814 -3.27808 0)
(3.11846 -3.27846 0)
(3.27878 -3.27878 0)
(3.43907 -3.27903 0)
(3.59935 -3.27922 0)
(3.75961 -3.27935 3.71302e-18)
(3.91987 -3.27943 -3.71334e-18)
(-3.91984 -3.11929 -3.61532e-18)
(-3.75951 -3.11919 0)
(-3.59918 -3.11903 -1.92715e-19)
(-3.43883 -3.11879 0)
(-3.27846 -3.11847 0)
(-3.11806 -3.11806 0)
(-2.95764 -3.11758 -3.70128e-18)
(-2.79721 -3.11702 -1.94557e-18)
(-2.63679 -3.11639 1.92678e-19)
(-2.47641 -3.11572 1.92686e-19)
(-2.3161 -3.11501 0)
(-2.1559 -3.1143 0)
(-1.99582 -3.11358 -1.92739e-19)
(-1.83585 -3.11284 -1.94411e-18)
(-1.67596 -3.11203 1.75152e-18)
(-1.51611 -3.11113 1.92731e-19)
(-1.35629 -3.11013 0)
(-1.19655 -3.10912 0)
(-1.03696 -3.10814 0)
(-0.87751 -3.1071 0)
(-0.718081 -3.10553 0)
(-0.558423 -3.10258 1.94811e-18)
(-0.398545 -3.09798 3.66154e-18)
(-0.238851 -3.09316 0)
(-0.0795665 -3.09021 1.92662e-19)
(0.0795665 -3.09021 -1.89495e-18)
(0.238851 -3.09316 0)
(0.398545 -3.09798 -1.93336e-19)
(0.558423 -3.10258 1.93025e-19)
(0.718081 -3.10553 -1.9556e-18)
(0.87751 -3.1071 0)
(1.03696 -3.10814 0)
(1.19655 -3.10912 0)
(1.35629 -3.11013 1.92782e-19)
(1.51611 -3.11113 5.44589e-18)
(1.67596 -3.11203 0)
(1.83585 -3.11284 -4.08104e-18)
(1.99582 -3.11358 1.92777e-19)
(2.1559 -3.1143 -3.69348e-18)
(2.3161 -3.11501 -1.94301e-18)
(2.47641 -3.11572 -1.9276e-19)
(2.63679 -3.11639 1.92752e-19)
(2.79721 -3.11702 1.94564e-18)
(2.95764 -3.11758 -3.70134e-18)
(3.11806 -3.11806 -1.9275e-19)
(3.27846 -3.11847 3.8993e-18)
(3.43883 -3.11879 1.92744e-19)
(3.59918 -3.11903 -1.92742e-19)
(3.75951 -3.11919 0)
(3.91984 -3.11929 0)
(-3.9198 -2.95914 9.63495e-20)
(-3.75939 -2.95903 0)
(-3.59898 -2.95883 1.9271e-19)
(-3.43855 -2.95853 1.75696e-18)
(-3.27808 -2.95814 0)
(-3.11758 -2.95765 0)
(-2.95705 -2.95705 0)
(-2.7965 -2.95636 7.77528e-18)
(-2.63595 -2.95558 -1.74958e-18)
(-2.47545 -2.95475 5.43835e-18)
(-2.31506 -2.9539 0)
(-2.15482 -2.95308 3.69098e-18)
(-1.99477 -2.95231 3.69463e-18)
(-1.8349 -2.95156 0)
(-1.67512 -2.95075 0)
(-1.51534 -2.94979 0)
(-1.35553 -2.94866 0)
(-1.1958 -2.94757 -1.75171e-18)
(-1.03629 -2.94675 7.4117e-18)
(-0.877123 -2.9463 5.69292e-18)
(-0.718075 -2.94561 -1.78423e-18)
(-0.55847 -2.94262 3.75577e-18)
(-0.398143 -2.93573 -1.93635e-18)
(-0.238245 -2.92766 0)
(-0.0793291 -2.92293 -1.69456e-18)
(0.0793291 -2.92293 1.93079e-19)
(0.238245 -2.92766 0)
(0.398143 -2.93573 1.745e-18)
(0.55847 -2.94262 -5.53786e-18)
(0.718075 -2.94561 0)
(0.877123 -2.9463 0)
(1.03629 -2.94675 0)
(1.1958 -2.94757 3.69618e-18)
(1.35553 -2.94866 0)
(1.51534 -2.94979 -3.89147e-18)
(1.67512 -2.95075 0)
(1.8349 -2.95156 1.94572e-18)
(1.99477 -2.95231 0)
(2.15482 -2.95308 -3.69102e-18)
(2.31506 -2.9539 0)
(2.47545 -2.95475 -3.68988e-18)
(2.63595 -2.95558 -1.92758e-19)
(2.7965 -2.95636 1.9439e-18)
(2.95705 -2.95705 -1.92747e-19)
(3.11758 -2.95765 0)
(3.27808 -2.95814 0)
(3.43855 -2.95853 -1.94971e-18)
(3.59898 -2.95883 0)
(3.75939 -2.95903 0)
(3.9198 -2.95914 1.92726e-19)
(-3.91975 -2.799 0)
(-3.75925 -2.79886 -1.92712e-19)
(-3.59875 -2.79862 -1.9494e-18)
(-3.43821 -2.79827 1.75582e-18)
(-3.27764 -2.7978 -5.45623e-18)
(-3.11702 -2.79721 1.94557e-18)
(-2.95636 -2.7965 -7.77528e-18)
(-2.79566 -2.79566 0)
(-2.63496 -2.79471 1.94013e-18)
(-2.47431 -2.7937 1.7462e-18)
(-2.31378 -2.79269 0)
(-2.15349 -2.79175 -3.49537e-18)
(-1.9935 -2.79096 0)
(-1.8338 -2.79031 0)
(-1.67425 -2.78964 0)
(-1.51458 -2.78866 3.70603e-18)
(-1.3547 -2.78729 1.94383e-18)
(-1.1949 -2.786 3.88622e-18)
(-1.03539 -2.78522 0)
(-0.876627 -2.78572 0)
(-0.718458 -2.78749 0)
(-0.55915 -2.78617 0)
(-0.397539 -2.77566 0)
(-0.237089 -2.76163 1.91063e-19)
(-0.0789662 -2.75452 1.88755e-18)
(0.0789661 -2.75452 -1.92839e-19)
(0.237088 -2.76163 0)
(0.39754 -2.77566 1.95884e-18)
(0.55915 -2.78617 3.86197e-18)
(0.718458 -2.78749 2.00683e-18)
(0.876627 -2.78572 0)
(1.03539 -2.78522 0)
(1.1949 -2.786 0)
(1.3547 -2.78729 0)
(1.51458 -2.78866 -1.75666e-18)
(1.67425 -2.78964 0)
(1.8338 -2.79031 0)
(1.9935 -2.79096 0)
(2.15349 -2.79175 -3.49537e-18)
(2.31378 -2.79269 1.92758e-19)
(2.47431 -2.7937 0)
(2.63496 -2.79471 1.94023e-18)
(2.79566 -2.79566 1.92747e-19)
(2.95636 -2.7965 5.63894e-18)
(3.11702 -2.79721 0)
(3.27764 -2.7978 -5.45628e-18)
(3.43821 -2.79827 -1.94855e-18)
(3.59875 -2.79862 1.94942e-18)
(3.75925 -2.79886 -1.75745e-18)
(3.91975 -2.799 -5.46558e-18)
(-3.9197 -2.63886 -9.63442e-20)
(-3.75909 -2.6387 0)
(-3.59848 -2.63842 0)
(-3.43784 -2.63802 0)
(-3.27715 -2.63748 -1.94612e-18)
(-3.11639 -2.63679 -1.92678e-19)
(-2.95558 -2.63595 1.74958e-18)
(-2.79471 -2.63496 -1.94013e-18)
(-2.63382 -2.63382 0)
(-2.47297 -2.63259 1.74357e-18)
(-2.31225 -2.63136 -1.93573e-18)
(-2.15184 -2.63026 0)
(-1.99191 -2.62948 0)
(-1.83254 -2.6291 1.95372e-18)
(-1.67347 -2.62886 0)
(-1.51405 -2.62802 1.95727e-18)
(-1.35388 -2.62612 -5.63176e-18)
(-1.19388 -2.62435 0)
(-1.03402 -2.62299 -5.59954e-18)
(-0.875674 -2.62413 -1.95755e-18)
(-0.719409 -2.63082 5.93188e-18)
(-0.561508 -2.63607 1.95797e-19)
(-0.383776 -2.60702 0)
(-0.225364 -2.58829 3.6521e-18)
(-0.0765763 -2.5891 0)
(0.0765763 -2.5891 -2.1142e-18)
(0.225365 -2.5883 0)
(0.383775 -2.60703 -1.66417e-18)
(0.561508 -2.63607 -1.90545e-19)
(0.719409 -2.63082 -4.07328e-18)
(0.875674 -2.62413 0)
(1.03402 -2.62299 5.60128e-18)
(1.19388 -2.62435 0)
(1.35388 -2.62612 0)
(1.51405 -2.62802 0)
(1.67347 -2.62886 0)
(1.83254 -2.6291 0)
(1.99191 -2.62948 1.75103e-18)
(2.15184 -2.63026 1.74501e-18)
(2.31225 -2.63136 0)
(2.47297 -2.63259 -1.74357e-18)
(2.63382 -2.63382 -1.93803e-18)
(2.79471 -2.63496 -1.74748e-18)
(2.95558 -2.63595 3.88464e-18)
(3.11639 -2.63679 1.92742e-19)
(3.27715 -2.63748 5.64574e-18)
(3.43784 -2.63802 -1.92728e-19)
(3.59848 -2.63842 -1.94833e-18)
(3.75909 -2.6387 1.92723e-19)
(3.9197 -2.63886 0)
(-3.91964 -2.47872 0)
(-3.75891 -2.47855 3.70314e-18)
(-3.59818 -2.47824 0)
(-3.43742 -2.47778 1.94634e-18)
(-3.2766 -2.47718 5.64242e-18)
(-3.11572 -2.47641 -1.92686e-19)
(-2.95475 -2.47545 -5.43835e-18)
(-2.7937 -2.47431 -1.7462e-18)
(-2.63259 -2.47297 -1.74357e-18)
(-2.47147 -2.47147 0)
(-2.31047 -2.46993 0)
(-2.1498 -2.46855 1.92581e-19)
(-1.98984 -2.46769 0)
(-1.83097 -2.46778 0)
(-1.67294 -2.46865 0)
(-1.51416 -2.46848 1.97696e-18)
(-1.35312 -2.4653 -3.85933e-18)
(-1.19301 -2.46303 -1.93587e-19)
(-1.01901 -2.44732 -4.35116e-18)
(-0.863871 -2.4521 0)
(-0.718559 -2.47562 0)
(-0.571641 -2.50224 0)
(-0.420393 -2.50413 0)
(0.420393 -2.50413 0)
(0.571641 -2.50224 0)
(0.718559 -2.47562 -4.177e-18)
(0.863871 -2.4521 2.80418e-19)
(1.01901 -2.44732 0)
(1.19301 -2.46303 -1.92552e-19)
(1.35312 -2.4653 -7.3398e-18)
(1.51416 -2.46848 0)
(1.67294 -2.46865 0)
(1.83097 -2.46778 1.95953e-18)
(1.98984 -2.46769 0)
(2.1498 -2.46855 0)
(2.31047 -2.46993 1.9318e-18)
(2.47147 -2.47148 0)
(2.63259 -2.47297 1.74357e-18)
(2.7937 -2.47431 0)
(2.95475 -2.47545 -3.49712e-18)
(3.11572 -2.47641 -1.92734e-19)
(3.2766 -2.47718 0)
(3.43742 -2.47778 0)
(3.59818 -2.47824 1.92726e-19)
(3.75891 -2.47855 -3.70315e-18)
(3.91964 -2.47872 0)
(-3.91957 -2.3186 0)
(-3.75871 -2.31841 0)
(-3.59786 -2.31808 0)
(-3.43697 -2.31759 -1.94553e-18)
(-3.27603 -2.31694 5.64049e-18)
(-3.11501 -2.3161 0)
(-2.9539 -2.31506 0)
(-2.79269 -2.31378 0)
(-2.63136 -2.31225 1.93573e-18)
(-2.46993 -2.31047 0)
(-2.30849 -2.30849 0)
(-2.1473 -2.30655 0)
(-1.98698 -2.30527 0)
(-1.82858 -2.30577 0)
(-1.67276 -2.30913 1.953e-19)
(-1.51618 -2.31169 -1.94451e-19)
(-1.33939 -2.29228 5.70199e-18)
(-1.18773 -2.29911 2.50763e-18)
(-1.04734 -2.31944 0)
(1.04734 -2.31944 0)
(1.18773 -2.29911 2.16856e-18)
(1.33939 -2.29228 -8.67988e-18)
(1.51618 -2.31169 0)
(1.67276 -2.30913 -1.92431e-19)
(1.82858 -2.30577 1.9277e-19)
(1.98698 -2.30527 0)
(2.1473 -2.30655 -1.9276e-19)
(2.30848 -2.30848 0)
(2.46993 -2.31047 0)
(2.63136 -2.31225 -1.74311e-18)
(2.79269 -2.31378 0)
(2.9539 -2.31506 3.68966e-18)
(3.11501 -2.3161 1.75019e-18)
(3.27603 -2.31694 0)
(3.43697 -2.31759 -1.92726e-19)
(3.59786 -2.31808 -1.94636e-18)
(3.75871 -2.31841 1.92718e-19)
(3.91957 -2.3186 -3.70062e-18)
(-3.91949 -2.1585 -3.69775e-18)
(-3.75849 -2.15831 3.69834e-18)
(-3.5975 -2.15796 -3.89063e-18)
(-3.43648 -2.15745 -1.92713e-19)
(-3.27542 -2.15677 -1.94403e-18)
(-3.11429 -2.1559 0)
(-2.95308 -2.15482 -1.92721e-19)
(-2.79175 -2.15349 3.49537e-18)
(-2.63026 -2.15184 0)
(-2.46855 -2.1498 -1.92581e-19)
(-2.30655 -2.1473 0)
(-2.14442 -2.14442 0)
(-1.98293 -2.14182 5.3358e-18)
(-1.82415 -2.14152 0)
(-1.67217 -2.14915 0)
(-1.51315 -2.15149 0)
(-1.36396 -2.1604 0)
(1.36396 -2.1604 0)
(1.51315 -2.15149 1.88294e-18)
(1.67217 -2.14915 0)
(1.82415 -2.14152 1.93089e-19)
(1.98293 -2.14182 0)
(2.14442 -2.14442 -1.92747e-19)
(2.30655 -2.1473 -3.84946e-18)
(2.46855 -2.1498 0)
(2.63026 -2.15184 0)
(2.79175 -2.15349 3.49537e-18)
(2.95308 -2.15482 0)
(3.11429 -2.1559 1.7503e-18)
(3.27542 -2.15677 0)
(3.43648 -2.15745 0)
(3.5975 -2.15796 3.69793e-18)
(3.75849 -2.15831 3.89106e-18)
(3.91949 -2.1585 1.75254e-18)
(-3.91941 -1.99844 1.84746e-18)
(-3.75824 -1.99823 0)
(-3.59711 -1.99787 0)
(-3.43597 -1.99736 1.94403e-18)
(-3.27479 -1.99668 1.75106e-18)
(-3.11358 -1.99582 1.92739e-19)
(-2.95231 -1.99477 -3.69463e-18)
(-2.79096 -1.9935 0)
(-2.62948 -1.99191 0)
(-2.46769 -1.98984 0)
(-2.30527 -1.98698 0)
(-2.14182 -1.98293 -5.3358e-18)
(-1.97767 -1.97767 0)
(-1.80316 -1.96041 -5.98358e-18)
(-1.66264 -1.98017 -1.95558e-18)
(-1.54004 -2.02266 0)
(1.54004 -2.02266 0)
(1.66264 -1.98017 0)
(1.80316 -1.96041 0)
(1.97767 -1.97767 0)
(2.14182 -1.98293 0)
(2.30527 -1.98698 0)
(2.46769 -1.98984 0)
(2.62948 -1.99191 0)
(2.79096 -1.9935 -1.92728e-19)
(2.95231 -1.99477 -3.69458e-18)
(3.11358 -1.99582 1.92718e-19)
(3.27479 -1.99668 0)
(3.43597 -1.99736 -4.08076e-18)
(3.59711 -1.99787 1.92712e-19)
(3.75824 -1.99823 1.75157e-18)
(3.91941 -1.99844 1.92702e-19)
(-3.91932 -1.83839 -9.63231e-20)
(-3.75798 -1.83819 -1.94276e-18)
(-3.59669 -1.83783 0)
(-3.43541 -1.83732 0)
(-3.27413 -1.83666 1.94358e-18)
(-3.11284 -1.83585 1.94411e-18)
(-2.95156 -1.8349 0)
(-2.79031 -1.8338 0)
(-2.6291 -1.83254 -1.95372e-18)
(-2.46778 -1.83097 0)
(-2.30577 -1.82858 0)
(-2.14152 -1.82415 0)
(-1.96041 -1.80316 5.98358e-18)
(-1.81043 -1.81043 0)
(1.81043 -1.81043 0)
(1.96041 -1.80316 5.84383e-18)
(2.14152 -1.82415 0)
(2.30577 -1.82858 -1.92724e-19)
(2.46778 -1.83097 0)
(2.6291 -1.83254 0)
(2.79031 -1.8338 0)
(2.95156 -1.8349 1.92717e-19)
(3.11284 -1.83585 -3.88813e-18)
(3.27413 -1.83666 0)
(3.43541 -1.83732 -1.9271e-19)
(3.59669 -1.83783 0)
(3.75798 -1.83819 -3.6928e-18)
(3.91932 -1.83839 1.92697e-19)
(-3.91922 -1.67838 3.59154e-18)
(-3.75768 -1.67818 -3.88237e-18)
(-3.59622 -1.67783 1.92705e-19)
(-3.4348 -1.67734 3.69212e-18)
(-3.2734 -1.67671 -1.94315e-18)
(-3.11203 -1.67596 -1.75152e-18)
(-2.95075 -1.67512 0)
(-2.78964 -1.67425 0)
(-2.62886 -1.67347 0)
(-2.46865 -1.67294 0)
(-2.30913 -1.67276 -1.953e-19)
(-2.14915 -1.67217 0)
(-1.98017 -1.66264 1.95558e-18)
(1.98017 -1.66264 -2.15178e-18)
(2.14915 -1.67217 -7.90768e-18)
(2.30913 -1.67276 2.02033e-18)
(2.46865 -1.67294 0)
(2.62886 -1.67347 -1.92746e-19)
(2.78964 -1.67425 3.71031e-18)
(2.95075 -1.67512 -1.92717e-19)
(3.11203 -1.67596 1.75152e-18)
(3.2734 -1.67671 5.44396e-18)
(3.4348 -1.67734 -1.92704e-19)
(3.59622 -1.67783 0)
(3.75768 -1.67818 -1.74849e-18)
(3.91922 -1.67838 -3.68792e-18)
(-3.9191 -1.5184 0)
(-3.75735 -1.51821 1.92692e-19)
(-3.59569 -1.51788 0)
(-3.43411 -1.51741 -5.63146e-18)
(-3.27259 -1.51681 0)
(-3.11113 -1.51611 -1.92731e-19)
(-2.94979 -1.51534 0)
(-2.78866 -1.51458 -3.70603e-18)
(-2.62802 -1.51405 -1.95727e-18)
(-2.46848 -1.51416 -1.97696e-18)
(-2.31169 -1.51618 1.94451e-19)
(-2.15149 -1.51315 0)
(-2.02266 -1.54004 0)
(2.02266 -1.54004 0)
(2.15149 -1.51315 1.88486e-18)
(2.31169 -1.51618 0)
(2.46848 -1.51416 -1.78402e-18)
(2.62802 -1.51405 0)
(2.78866 -1.51458 0)
(2.94979 -1.51534 1.94566e-18)
(3.11113 -1.51611 0)
(3.27259 -1.51681 1.92704e-19)
(3.43411 -1.51741 3.30465e-18)
(3.59569 -1.51788 -1.92691e-19)
(3.75735 -1.51821 0)
(3.9191 -1.5184 1.92681e-19)
(-3.91896 -1.35846 -9.62969e-20)
(-3.75696 -1.35828 3.68201e-18)
(-3.5951 -1.35796 0)
(-3.43335 -1.35752 -1.92718e-19)
(-3.2717 -1.35696 -3.69088e-18)
(-3.11013 -1.35629 0)
(-2.94866 -1.35552 1.9439e-18)
(-2.78729 -1.3547 -1.94389e-18)
(-2.62612 -1.35388 5.63176e-18)
(-2.4653 -1.35312 3.85933e-18)
(-2.29228 -1.33939 -5.70199e-18)
(-2.1604 -1.36396 0)
(2.1604 -1.36396 0)
(2.29228 -1.33939 0)
(2.4653 -1.35312 7.3387e-18)
(2.62612 -1.35388 0)
(2.78729 -1.3547 -3.69535e-18)
(2.94866 -1.35552 -3.88785e-18)
(3.11013 -1.35629 0)
(3.2717 -1.35696 1.9271e-19)
(3.43335 -1.35752 1.92696e-19)
(3.5951 -1.35796 0)
(3.75696 -1.35828 0)
(3.91896 -1.35846 0)
(-3.91881 -1.19855 0)
(-3.75653 -1.19838 -1.92676e-19)
(-3.59444 -1.19809 -5.61863e-18)
(-3.43251 -1.19769 1.92726e-19)
(-3.27075 -1.19718 -1.94173e-18)
(-3.10912 -1.19655 0)
(-2.94757 -1.1958 -1.92744e-19)
(-2.786 -1.1949 0)
(-2.62435 -1.19388 0)
(-2.46303 -1.19301 1.93587e-19)
(-2.29911 -1.18773 -2.50763e-18)
(2.29911 -1.18773 0)
(2.46303 -1.19301 -1.92942e-19)
(2.62435 -1.19388 1.74937e-18)
(2.786 -1.1949 1.92707e-19)
(2.94757 -1.1958 1.92744e-19)
(3.10912 -1.19655 0)
(3.27075 -1.19718 0)
(3.43251 -1.19769 0)
(3.59444 -1.19809 5.42591e-18)
(3.75653 -1.19838 -5.61224e-18)
(3.91881 -1.19855 0)
(-3.91864 -1.03867 0)
(-3.75603 -1.03852 0)
(-3.59367 -1.03827 0)
(-3.43156 -1.03792 7.36929e-18)
(-3.26971 -1.03749 -1.94263e-18)
(-3.10814 -1.03696 0)
(-2.94675 -1.03629 -5.46234e-18)
(-2.78522 -1.03539 -1.92743e-19)
(-2.62299 -1.03402 5.59954e-18)
(-2.44732 -1.01901 4.35116e-18)
(-2.31944 -1.04734 0)
(2.31944 -1.04734 0)
(2.44732 -1.01901 4.36916e-18)
(2.62299 -1.03402 -3.47688e-18)
(2.78522 -1.03539 -3.69901e-18)
(2.94675 -1.03629 -1.9493e-18)
(3.10814 -1.03696 0)
(3.26971 -1.03749 1.74986e-18)
(3.43156 -1.03792 5.43056e-18)
(3.59367 -1.03827 1.93516e-18)
(3.75603 -1.03852 1.92652e-19)
(3.91864 -1.03867 1.9292e-18)
(-3.91843 -0.878816 1.82874e-18)
(-3.75544 -0.87869 -1.73596e-18)
(-3.59276 -0.878482 1.93239e-18)
(-3.43041 -0.878203 2.12991e-18)
(-3.26849 -0.877872 1.92789e-19)
(-3.1071 -0.87751 1.7593e-18)
(-2.94629 -0.877123 -5.69292e-18)
(-2.78571 -0.876626 3.74216e-18)
(-2.62413 -0.875673 0)
(-2.4521 -0.863872 -1.97698e-18)
(2.4521 -0.863872 1.87301e-18)
(2.62413 -0.875673 0)
(2.78571 -0.876626 1.93093e-19)
(2.94629 -0.877123 0)
(3.1071 -0.87751 0)
(3.26849 -0.877872 -1.94356e-18)
(3.43041 -0.878203 3.48897e-18)
(3.59276 -0.878482 -1.93236e-18)
(3.75544 -0.87869 1.92859e-18)
(3.91843 -0.878816 1.92511e-18)
(-3.91819 -0.718987 0)
(-3.75475 -0.718885 3.6557e-18)
(-3.59165 -0.718715 0)
(-3.42894 -0.718496 1.92654e-19)
(-3.2668 -0.718265 0)
(-3.10553 -0.718081 0)
(-2.9456 -0.718076 1.97759e-18)
(-2.78748 -0.718457 0)
(-2.63081 -0.719409 0)
(-2.47561 -0.718559 4.49114e-18)
(2.47561 -0.718559 -4.29053e-18)
(2.63081 -0.719409 0)
(2.78748 -0.718457 -1.93777e-19)
(2.9456 -0.718076 -1.97734e-18)
(3.10553 -0.718081 0)
(3.2668 -0.718265 0)
(3.42894 -0.718496 0)
(3.59165 -0.718715 -1.92612e-19)
(3.75475 -0.718885 0)
(3.91819 -0.718987 0)
(-3.91793 -0.559179 -1.81861e-18)
(-3.75398 -0.559096 1.91895e-18)
(-3.59036 -0.558956 -3.65263e-18)
(-3.42709 -0.558775 0)
(-3.26436 -0.558576 1.9251e-19)
(-3.10257 -0.558424 0)
(-2.94262 -0.558469 3.94838e-18)
(-2.78617 -0.559153 0)
(-2.63607 -0.561506 -2.1399e-18)
(-2.50224 -0.57164 5.31812e-18)
(2.50224 -0.57164 -5.21489e-18)
(2.63607 -0.561506 1.94411e-18)
(2.78617 -0.559153 -3.86269e-18)
(2.94262 -0.558469 0)
(3.10257 -0.558424 0)
(3.26436 -0.558576 0)
(3.42709 -0.558775 -1.73467e-18)
(3.59036 -0.558956 -3.65261e-18)
(3.75398 -0.559096 0)
(3.91793 -0.559179 3.63735e-18)
(-3.91768 -0.399391 7.06119e-18)
(-3.7532 -0.399327 -1.91351e-18)
(-3.589 -0.399213 1.72347e-18)
(-3.425 -0.399049 1.92506e-19)
(-3.26125 -0.398833 1.72903e-18)
(-3.09798 -0.398545 -3.66154e-18)
(-2.93573 -0.398143 1.93635e-18)
(-2.77567 -0.397538 3.7182e-18)
(-2.60703 -0.383777 1.71552e-19)
(-2.50413 -0.420393 0)
(2.50413 -0.420393 0)
(2.60703 -0.383777 0)
(2.77567 -0.397538 -5.67438e-18)
(2.93573 -0.398143 0)
(3.09798 -0.398545 -3.85381e-18)
(3.26125 -0.398833 1.92141e-18)
(3.425 -0.399049 0)
(3.589 -0.399213 5.55556e-18)
(3.7532 -0.399327 -7.26879e-18)
(3.91768 -0.399391 -7.25393e-18)
(-3.91747 -0.239624 -1.71294e-18)
(-3.75256 -0.23958 0)
(-3.58784 -0.239501 -5.53824e-18)
(-3.42312 -0.239377 0)
(-3.25827 -0.239181 3.43177e-18)
(-3.09316 -0.238852 0)
(-2.92766 -0.238246 1.90021e-18)
(-2.76164 -0.237089 7.19134e-18)
(-2.5883 -0.225364 0)
(2.5883 -0.225364 0)
(2.76164 -0.237089 -1.89339e-18)
(2.92766 -0.238246 0)
(3.09316 -0.238852 3.81057e-18)
(3.25827 -0.239181 -3.62417e-18)
(3.42312 -0.239377 7.44703e-18)
(3.58784 -0.239501 -3.62793e-18)
(3.75256 -0.23958 0)
(3.91747 -0.239624 0)
(-3.91735 -0.0798725 0)
(-3.75218 -0.0798575 1.9064e-18)
(-3.58716 -0.0798282 1.90699e-18)
(-3.422 -0.0797798 1.92695e-19)
(-3.25645 -0.0797021 1.90097e-18)
(-3.09021 -0.0795667 0)
(-2.92293 -0.0793294 1.69456e-18)
(-2.75452 -0.0789654 -1.93365e-19)
(-2.58911 -0.076577 2.12259e-18)
(2.58911 -0.076577 -2.02268e-18)
(2.75452 -0.0789654 0)
(2.92293 -0.0793294 -3.58153e-18)
(3.09021 -0.0795667 1.92492e-19)
(3.25645 -0.0797021 1.90088e-18)
(3.422 -0.0797798 -1.90502e-18)
(3.58716 -0.0798282 -1.71427e-18)
(3.75218 -0.0798574 1.90638e-18)
(3.91735 -0.0798725 1.92709e-19)
(-3.91735 0.0798725 -1.05524e-17)
(-3.75218 0.0798575 7.2403e-18)
(-3.58716 0.0798282 0)
(-3.422 0.0797798 -9.14042e-18)
(-3.25645 0.0797021 1.9012e-18)
(-3.09021 0.0795665 1.93002e-19)
(-2.92293 0.0793291 0)
(-2.75452 0.0789661 1.92839e-19)
(-2.5891 0.0765763 0)
(2.5891 0.0765763 0)
(2.75452 0.0789661 0)
(2.92293 0.0793291 1.92726e-19)
(3.09021 0.0795665 0)
(3.25645 0.0797021 1.92822e-19)
(3.422 0.0797798 0)
(3.58716 0.0798282 0)
(3.75218 0.0798575 0)
(3.91735 0.0798725 1.9033e-18)
(-3.91747 0.239624 3.52234e-18)
(-3.75256 0.239581 0)
(-3.58784 0.239502 7.44931e-18)
(-3.42312 0.239377 0)
(-3.25827 0.239181 0)
(-3.09316 0.238851 0)
(-2.92766 0.238245 0)
(-2.76163 0.237088 0)
(-2.5883 0.225365 0)
(2.5883 0.225365 0)
(2.76163 0.237088 0)
(2.92766 0.238245 0)
(3.09316 0.238851 7.23907e-18)
(3.25827 0.239181 -5.53379e-18)
(3.42312 0.239377 7.44823e-18)
(3.58784 0.239502 -7.44923e-18)
(3.75256 0.239581 7.25091e-18)
(3.91747 0.239624 -3.61871e-18)
(-3.91768 0.399391 -1.81368e-18)
(-3.7532 0.399327 -5.54848e-18)
(-3.589 0.399213 -7.27977e-18)
(-3.425 0.399049 -1.92998e-19)
(-3.26125 0.398833 -1.92215e-18)
(-3.09798 0.398545 1.93336e-19)
(-2.93573 0.398143 -1.745e-18)
(-2.77566 0.39754 -1.95884e-18)
(-2.60703 0.383775 1.66417e-18)
(-2.50413 0.420393 0)
(2.50413 0.420393 0)
(2.60703 0.383775 1.68267e-18)
(2.77566 0.39754 -3.72411e-18)
(2.93573 0.398143 -1.93915e-18)
(3.09798 0.398545 3.8564e-18)
(3.26125 0.398833 1.92217e-18)
(3.425 0.399049 -1.92988e-19)
(3.589 0.399213 -7.66555e-18)
(3.7532 0.399327 3.63468e-18)
(3.91768 0.399391 0)
(-3.91793 0.559179 9.65118e-20)
(-3.75398 0.559096 -1.91923e-18)
(-3.59036 0.558956 0)
(-3.42709 0.558775 -1.92762e-18)
(-3.26436 0.558576 0)
(-3.10258 0.558423 -1.93025e-19)
(-2.94262 0.55847 5.53786e-18)
(-2.78617 0.55915 -3.86197e-18)
(-2.63607 0.561508 1.90545e-19)
(-2.50224 0.571641 0)
(2.50224 0.571641 0)
(2.63607 0.561508 0)
(2.78617 0.55915 0)
(2.94262 0.55847 3.75625e-18)
(3.10258 0.558423 1.93032e-19)
(3.26436 0.558576 -1.92984e-19)
(3.42709 0.558775 0)
(3.59036 0.558956 3.65293e-18)
(3.75398 0.559096 0)
(3.91793 0.559179 1.91525e-18)
(-3.91819 0.718987 0)
(-3.75475 0.718885 1.92441e-18)
(-3.59165 0.718715 0)
(-3.42894 0.718496 0)
(-3.2668 0.718265 1.92848e-19)
(-3.10553 0.718081 1.9556e-18)
(-2.94561 0.718075 0)
(-2.78749 0.718458 -2.00683e-18)
(-2.63082 0.719409 4.07328e-18)
(-2.47562 0.718559 4.177e-18)
(2.47562 0.718559 4.0767e-18)
(2.63082 0.719409 0)
(2.78749 0.718458 3.82137e-18)
(2.94561 0.718075 -1.78423e-18)
(3.10553 0.718081 3.71835e-18)
(3.2668 0.718265 0)
(3.42894 0.718496 1.93395e-18)
(3.59165 0.718715 1.92854e-19)
(3.75475 0.718885 -1.73154e-18)
(3.91819 0.718987 0)
(-3.91843 0.878816 -1.82897e-18)
(-3.75544 0.87869 -3.66477e-18)
(-3.59276 0.878482 0)
(-3.43041 0.878203 1.92826e-19)
(-3.26849 0.877872 1.94363e-18)
(-3.1071 0.87751 0)
(-2.9463 0.877123 0)
(-2.78572 0.876627 0)
(-2.62413 0.875674 0)
(-2.4521 0.863871 -2.80418e-19)
(2.4521 0.863871 1.7645e-19)
(2.62413 0.875674 -5.48392e-18)
(2.78572 0.876627 0)
(2.9463 0.877123 0)
(3.1071 0.87751 -1.95198e-18)
(3.26849 0.877872 3.6944e-18)
(3.43041 0.878203 -3.68175e-18)
(3.59276 0.878482 -1.93254e-18)
(3.75544 0.87869 -1.9288e-18)
(3.91843 0.878816 0)
(-3.91864 1.03867 -1.83303e-18)
(-3.75603 1.03852 1.73949e-18)
(-3.59367 1.03827 1.92828e-19)
(-3.43156 1.03792 5.62332e-18)
(-3.26971 1.03749 0)
(-3.10814 1.03696 0)
(-2.94675 1.03629 0)
(-2.78522 1.03539 0)
(-2.62299 1.03402 -5.60128e-18)
(-2.44732 1.01901 0)
(-2.31944 1.04734 0)
(2.31944 1.04734 0)
(2.44732 1.01901 3.20564e-18)
(2.62299 1.03402 3.47688e-18)
(2.78522 1.03539 0)
(2.94675 1.03629 -1.9491e-18)
(3.10814 1.03696 -3.70084e-18)
(3.26971 1.03749 -1.74986e-18)
(3.43156 1.03792 0)
(3.59367 1.03827 -1.93535e-18)
(3.75603 1.03852 1.93231e-18)
(3.91864 1.03867 1.9294e-18)
(-3.91881 1.19855 -5.41287e-18)
(-3.75653 1.19838 0)
(-3.59444 1.19809 0)
(-3.43251 1.19769 1.93944e-18)
(-3.27075 1.19718 1.92779e-19)
(-3.10912 1.19655 0)
(-2.94757 1.1958 -3.69618e-18)
(-2.786 1.1949 0)
(-2.62435 1.19388 0)
(-2.46303 1.19301 1.92552e-19)
(-2.29911 1.18773 -2.16856e-18)
(2.29911 1.18773 0)
(2.46303 1.19301 0)
(2.62435 1.19388 -1.74937e-18)
(2.786 1.1949 -1.9281e-19)
(2.94757 1.1958 -1.94447e-18)
(3.10912 1.19655 1.94373e-18)
(3.27075 1.19718 0)
(3.43251 1.19769 0)
(3.59444 1.19809 0)
(3.75653 1.19838 1.7423e-18)
(3.91881 1.19855 -5.60561e-18)
(-3.91896 1.35846 -1.74288e-18)
(-3.75696 1.35828 1.92813e-19)
(-3.5951 1.35796 0)
(-3.43335 1.35752 0)
(-3.2717 1.35696 0)
(-3.11013 1.35629 -1.92782e-19)
(-2.94866 1.35553 0)
(-2.78729 1.3547 0)
(-2.62612 1.35388 0)
(-2.4653 1.35312 7.3398e-18)
(-2.29228 1.33939 8.67988e-18)
(-2.1604 1.36396 0)
(2.1604 1.36396 5.20731e-18)
(2.29228 1.33939 0)
(2.4653 1.35312 -3.86542e-18)
(2.62612 1.35388 5.63385e-18)
(2.78729 1.3547 1.94421e-18)
(2.94866 1.35553 0)
(3.11013 1.35629 0)
(3.2717 1.35696 3.88358e-18)
(3.43335 1.35752 0)
(3.5951 1.35796 3.68527e-18)
(3.75696 1.35828 0)
(3.91896 1.35846 0)
(-3.9191 1.5184 3.58725e-18)
(-3.75735 1.51821 0)
(-3.59569 1.51788 0)
(-3.43411 1.51741 1.94152e-18)
(-3.27259 1.51681 0)
(-3.11113 1.51611 -5.44589e-18)