/*--------------------------------*- C++ -*----------------------------------*\
| =========                 |                                                 |
| \\      /  F ield         | OpenFOAM: The Open Source CFD Toolbox           |
|  \\    /   O peration     | Version:  2412                                  |
|   \\  /    A nd           | Website:  www.openfoam.com                      |
|    \\/     M anipulation  |                                                 |
\*---------------------------------------------------------------------------*/
FoamFile
{
    version     2.0;
    format      ascii;
    arch        "LSB;label=32;scalar=64";
    class       volScalarField;
    location    "0";
    object      Cx;
}
// * * * * * * * * * * * * * * * * * * * * * * * * * * * * * * * * * * * * * //

dimensions      [0 1 0 0 0 0 0];

internalField   nonuniform List<scalar> 
1728
(
-3.91994
-3.75982
-3.5997
-3.43956
-3.27943
-3.11929
-2.95914
-2.799
-2.63886
-2.47872
-2.3186
-2.1585
-1.99844
-1.83839
-1.67838
-1.5184
-1.35846
-1.19855
-1.03867
-0.878816
-0.718987
-0.559179
-0.399391
-0.239624
-0.0798725
0.0798725
0.239624
0.399391
0.559179
0.718987
0.878816
1.03867
1.19855
1.35846
1.5184
1.67838
1.83839
1.99844
2.1585
2.3186
2.47872
2.63886
2.799
2.95914
3.11929
3.27943
3.43956
3.5997
3.75982
3.91994
-3.91993
-3.75979
-3.59965
-3.43951
-3.27935
-3.11919
-2.95903
-2.79886
-2.6387
-2.47855
-2.31841
-2.15831
-1.99823
-1.83819
-1.67818
-1.51821
-1.35828
-1.19838
-1.03852
-0.87869
-0.718885
-0.559096
-0.399327
-0.239581
-0.0798575
0.0798575
0.239581
0.399327
0.559096
0.718885
0.87869
1.03852
1.19838
1.35828
1.51821
1.67818
1.83819
1.99823
2.15831
2.31841
2.47855
2.6387
2.79886
2.95903
3.11919
3.27935
3.43951
3.59965
3.75979
3.91993
-3.91992
-3.75975
-3.59958
-3.43941
-3.27922
-3.11903
-2.95883
-2.79862
-2.63842
-2.47824
-2.31808
-2.15796
-1.99787
-1.83783
-1.67783
-1.51788
-1.35796
-1.19809
-1.03827
-0.878482
-0.718715
-0.558956
-0.399213
-0.239502
-0.0798282
0.0798282
0.239502
0.399213
0.558956
0.718715
0.878482
1.03827
1.19809
1.35796
1.51788
1.67783
1.83783
1.99787
2.15796
2.31808
2.47824
2.63842
2.79862
2.95883
3.11903
3.27922
3.43941
3.59958
3.75975
3.91992
-3.9199
-3.75969
-3.59948
-3.43926
-3.27903
-3.11878
-2.95853
-2.79827
-2.63802
-2.47778
-2.31759
-2.15745
-1.99736
-1.83732
-1.67734
-1.51741
-1.35752
-1.19769
-1.03792
-0.878203
-0.718496
-0.558775
-0.399049
-0.239377
-0.0797798
0.0797798
0.239377
0.399049
0.558775
0.718496
0.878203
1.03792
1.19769
1.35752
1.51741
1.67734
1.83732
1.99736
2.15745
2.31759
2.47778
2.63802
2.79827
2.95853
3.11878
3.27903
3.43926
3.59948
3.75969
3.9199
-3.91987
-3.75961
-3.59935
-3.43907
-3.27878
-3.11846
-2.95814
-2.7978
-2.63748
-2.47718
-2.31694
-2.15677
-1.99668
-1.83666
-1.67671
-1.51681
-1.35696
-1.19718
-1.03749
-0.877872
-0.718265
-0.558576
-0.398833
-0.239181
-0.0797021
0.0797021
0.239181
0.398833
0.558576
0.718265
0.877872
1.03749
1.19718
1.35696
1.51681
1.67671
1.83666
1.99668
2.15677
2.31694
2.47718
2.63748
2.7978
2.95814
3.11846
3.27878
3.43907
3.59935
3.75961
3.91987
-3.91984
-3.75951
-3.59918
-3.43883
-3.27846
-3.11806
-2.95764
-2.79721
-2.63679
-2.47641
-2.3161
-2.1559
-1.99582
-1.83585
-1.67596
-1.51611
-1.35629
-1.19655
-1.03696
-0.87751
-0.718081
-0.558423
-0.398545
-0.238851
-0.0795665
0.0795665
0.238851
0.398545
0.558423
0.718081
0.87751
1.03696
1.19655
1.35629
1.51611
1.67596
1.83585
1.99582
2.1559
2.3161
2.47641
2.63679
2.79721
2.95764
3.11806
3.27846
3.43883
3.59918
3.75951
3.91984
-3.9198
-3.75939
-3.59898
-3.43855
-3.27808
-3.11758
-2.95705
-2.7965
-2.63595
-2.47545
-2.31506
-2.15482
-1.99477
-1.8349
-1.67512
-1.51534
-1.35553
-1.1958
-1.03629
-0.877123
-0.718075
-0.55847
-0.398143
-0.238245
-0.0793291
0.0793291
0.238245
0.398143
0.55847
0.718075
0.877123
1.03629
1.1958
1.35553
1.51534
1.67512
1.8349
1.99477
2.15482
2.31506
2.47545
2.63595
2.7965
2.95705
3.11758
3.27808
3.43855
3.59898
3.75939
3.9198
-3.91975
-3.75925
-3.59875
-3.43821
-3.27764
-3.11702
-2.95636
-2.79566
-2.63496
-2.47431
-2.31378
-2.15349
-1.9935
-1.8338
-1.67425
-1.51458
-1.3547
-1.1949
-1.03539
-0.876627
-0.718458
-0.55915
-0.397539
-0.237089
-0.0789662
0.0789661
0.237088
0.39754
0.55915
0.718458
0.876627
1.03539
1.1949
1.3547
1.51458
1.67425
1.8338
1.9935
2.15349
2.31378
2.47431
2.63496
2.79566
2.95636
3.11702
3.27764
3.43821
3.59875
3.75925
3.91975
-3.9197
-3.75909
-3.59848
-3.43784
-3.27715
-3.11639
-2.95558
-2.79471
-2.63382
-2.47297
-2.31225
-2.15184
-1.99191
-1.83254
-1.67347
-1.51405
-1.35388
-1.19388
-1.03402
-0.875674
-0.719409
-0.561508
-0.383776
-0.225364
-0.0765763
0.0765763
0.225365
0.383775
0.561508
0.719409
0.875674
1.03402
1.19388
1.35388
1.51405
1.67347
1.83254
1.99191
2.15184
2.31225
2.47297
2.63382
2.79471
2.95558
3.11639
3.27715
3.43784
3.59848
3.75909
3.9197
-3.91964
-3.75891
-3.59818
-3.43742
-3.2766
-3.11572
-2.95475
-2.7937
-2.63259
-2.47147
-2.31047
-2.1498
-1.98984
-1.83097
-1.67294
-1.51416
-1.35312
-1.19301
-1.01901
-0.863871
-0.718559
-0.571641
-0.420393
0.420393
0.571641
0.718559
0.863871
1.01901
1.19301
1.35312
1.51416
1.67294
1.83097
1.98984
2.1498
2.31047
2.47147
2.63259
2.7937
2.95475
3.11572
3.2766
3.43742
3.59818
3.75891
3.91964
-3.91957
-3.75871
-3.59786
-3.43697
-3.27603
-3.11501
-2.9539
-2.79269
-2.63136
-2.46993
-2.30849
-2.1473
-1.98698
-1.82858
-1.67276
-1.51618
-1.33939
-1.18773
-1.04734
1.04734
1.18773
1.33939
1.51618
1.67276
1.82858
1.98698
2.1473
2.30848
2.46993
2.63136
2.79269
2.9539
3.11501
3.27603
3.43697
3.59786
3.75871
3.91957
-3.91949
-3.75849
-3.5975
-3.43648
-3.27542
-3.11429
-2.95308
-2.79175
-2.63026
-2.46855
-2.30655
-2.14442
-1.98293
-1.82415
-1.67217
-1.51315
-1.36396
1.36396
1.51315
1.67217
1.82415
1.98293
2.14442
2.30655
2.46855
2.63026
2.79175
2.95308
3.11429
3.27542
3.43648
3.5975
3.75849
3.91949
-3.91941
-3.75824
-3.59711
-3.43597
-3.27479
-3.11358
-2.95231
-2.79096
-2.62948
-2.46769
-2.30527
-2.14182
-1.97767
-1.80316
-1.66264
-1.54004
1.54004
1.66264
1.80316
1.97767
2.14182
2.30527
2.46769
2.62948
2.79096
2.95231
3.11358
3.27479
3.43597
3.59711
3.75824
3.91941
-3.91932
-3.75798
-3.59669
-3.43541
-3.27413
-3.11284
-2.95156
-2.79031
-2.6291
-2.46778
-2.30577
-2.14152
-1.96041
-1.81043
1.81043
1.96041
2.14152
2.30577
2.46778
2.6291
2.79031
2.95156
3.11284
3.27413
3.43541
3.59669
3.75798
3.91932
-3.91922
-3.75768
-3.59622
-3.4348
-3.2734
-3.11203
-2.95075
-2.78964
-2.62886
-2.46865
-2.30913
-2.14915
-1.98017
1.98017
2.14915
2.30913
2.46865
2.62886
2.78964
2.95075
3.11203
3.2734
3.4348
3.59622
3.75768
3.91922
-3.9191
-3.75735
-3.59569
-3.43411
-3.27259
-3.11113
-2.94979
-2.78866
-2.62802
-2.46848
-2.31169
-2.15149
-2.02266
2.02266
2.15149
2.31169
2.46848
2.62802
2.78866
2.94979
3.11113
3.27259
3.43411
3.59569
3.75735
3.9191
-3.91896
-3.75696
-3.5951
-3.43335
-3.2717
-3.11013
-2.94866
-2.78729
-2.62612
-2.4653
-2.29228
-2.1604
2.1604
2.29228
2.4653
2.62612
2.78729
2.94866
3.11013
3.2717
3.43335
3.5951
3.75696
3.91896
-3.91881
-3.75653
-3.59444
-3.43251
-3.27075
-3.10912
-2.94757
-2.786
-2.62435
-2.46303
-2.29911
2.29911
2.46303
2.62435
2.786
2.94757
3.10912
3.27075
3.43251
3.59444
3.75653
3.91881
-3.91864
-3.75603
-3.59367
-3.43156
-3.26971
-3.10814
-2.94675
-2.78522
-2.62299
-2.44732
-2.31944
2.31944
2.44732
2.62299
2.78522
2.94675
3.10814
3.26971
3.43156
3.59367
3.75603
3.91864
-3.91843
-3.75544
-3.59276
-3.43041
-3.26849
-3.1071
-2.94629
-2.78571
-2.62413
-2.4521
2.4521
2.62413
2.78571
2.94629
3.1071
3.26849
3.43041
3.59276
3.75544
3.91843
-3.91819
-3.75475
-3.59165
-3.42894
-3.2668
-3.10553
-2.9456
-2.78748
-2.63081
-2.47561
2.47561
2.63081
2.78748
2.9456
3.10553
3.2668
3.42894
3.59165
3.75475
3.91819
-3.91793
-3.75398
-3.59036
-3.42709
-3.26436
-3.10257
-2.94262
-2.78617
-2.63607
-2.50224
2.50224
2.63607
2.78617
2.94262
3.10257
3.26436
3.42709
3.59036
3.75398
3.91793
-3.91768
-3.7532
-3.589
-3.425
-3.26125
-3.09798
-2.93573
-2.77567
-2.60703
-2.50413
2.50413
2.60703
2.77567
2.93573
3.09798
3.26125
3.425
3.589
3.7532
3.91768
-3.91747
-3.75256
-3.58784
-3.42312
-3.25827
-3.09316
-2.92766
-2.76164
-2.5883
2.5883
2.76164
2.92766
3.09316
3.25827
3.42312
3.58784
3.75256
3.91747
-3.91735
-3.75218
-3.58716
-3.422
-3.25645
-3.09021
-2.92293
-2.75452
-2.58911
2.58911
2.75452
2.92293
3.09021
3.25645
3.422
3.58716
3.75218
3.91735
-3.91735
-3.75218
-3.58716
-3.422
-3.25645
-3.09021
-2.92293
-2.75452
-2.5891
2.5891
2.75452
2.92293
3.09021
3.25645
3.422
3.58716
3.75218
3.91735
-3.91747
-3.75256
-3.58784
-3.42312
-3.25827
-3.09316
-2.92766
-2.76163
-2.5883
2.5883
2.76163
2.92766
3.09316
3.25827
3.42312
3.58784
3.75256
3.91747
-3.91768
-3.7532
-3.589
-3.425
-3.26125
-3.09798
-2.93573
-2.77566
-2.60703
-2.50413
2.50413
2.60703
2.77566
2.93573
3.09798
3.26125
3.425
3.589
3.7532
3.91768
-3.91793
-3.75398
-3.59036
-3.42709
-3.26436
-3.10258
-2.94262
-2.78617
-2.63607
-2.50224
2.50224
2.63607
2.78617
2.94262
3.10258
3.26436
3.42709
3.59036
3.75398
3.91793
-3.91819
-3.75475
-3.59165
-3.42894
-3.2668
-3.10553
-2.94561
-2.78749
-2.63082
-2.47562
2.47562
2.63082
2.78749
2.94561
3.10553
3.2668
3.42894
3.59165
3.75475
3.91819
-3.91843
-3.75544
-3.59276
-3.43041
-3.26849
-3.1071
-2.9463
-2.78572
-2.62413
-2.4521
2.4521
2.62413
2.78572
2.9463
3.1071
3.26849
3.43041
3.59276
3.75544
3.91843
-3.91864
-3.75603
-3.59367
-3.43156
-3.26971
-3.10814
-2.94675
-2.78522
-2.62299
-2.44732
-2.31944
2.31944
2.44732
2.62299
2.78522
2.94675
3.10814
3.26971
3.43156
3.59367
3.75603
3.91864
-3.91881
-3.75653
-3.59444
-3.43251
-3.27075
-3.10912
-2.94757
-2.786
-2.62435
-2.46303
-2.29911
2.29911
2.46303
2.62435
2.786
2.94757
3.10912
3.27075
3.43251
3.59444
3.75653
3.91881
-3.91896
-3.75696
-3.5951
-3.43335
-3.2717
-3.11013
-2.94866
-2.78729
-2.62612
-2.4653
-2.29228
-2.1604
2.1604
2.29228
2.4653
2.62612
2.78729
2.94866
3.11013
3.2717
3.43335
3.5951
3.75696
3.91896
-3.9191
-3.75735
-3.59569
-3.43411
-3.27259
-3.11113
-2.94979
-2.78866
-2.62802
-2.46848
-2.31169
-2.15149
-2.02266
2.02266
2.15149
2.31169
2.46848
2.62802
2.78866
2.94979
3.11113
3.27259
3.43411
3.59569
3.75735
3.9191
-3.91922
-3.75768
-3.59622
-3.4348
-3.2734
-3.11203
-2.95075
-2.78964
-2.62886
-2.46865
-2.30913
-2.14915
-1.98017
1.98017
2.14915
2.30913
2.46865
2.62886
2.78964
2.95075
3.11203
3.2734
3.4348
3.59622
3.75768
3.91922
-3.91932
-3.75798
-3.59669
-3.43541
-3.27413
-3.11284
-2.95156
-2.79031
-2.6291
-2.46778
-2.30577
-2.14152
-1.96041
-1.81043
1.81043
1.96041
2.14152
2.30577
2.46778
2.6291
2.79031
2.95156
3.11284
3.27413
3.43541
3.59669
3.75798
3.91932
-3.91941
-3.75824
-3.59711
-3.43597
-3.27479
-3.11358
-2.95231
-2.79096
-2.62948
-2.46769
-2.30527
-2.14182
-1.97767
-1.80316
-1.66264
-1.54004
1.54004
1.66264
1.80316
1.97767
2.14182
2.30527
2.46769
2.62948
2.79096
2.95231
3.11358
3.27479
3.43597
3.59711
3.75824
3.91941
-3.91949
-3.75849
-3.5975
-3.43648
-3.27542
-3.1143
-2.95308
-2.79175
-2.63026
-2.46855
-2.30655
-2.14442
-1.98293
-1.82415
-1.67217
-1.51315
-1.36396
1.36396
1.51315
1.67217
1.82415
1.98293
2.14442
2.30655
2.46855
2.63026
2.79175
2.95308
3.1143
3.27542
3.43648
3.5975
3.75849
3.91949
-3.91957
-3.75871
-3.59786
-3.43697
-3.27603
-3.11501
-2.9539
-2.79269
-2.63136
-2.46993
-2.30848
-2.1473
-1.98698
-1.82858
-1.67276
-1.51618
-1.33939
-1.18773
-1.04734
1.04734
1.18773
1.33939
1.51618
1.67276
1.82858
1.98698
2.1473
2.30849
2.46993
2.63136
2.79269
2.9539
3.11501
3.27603
3.43697
3.59786
3.75871
3.91957
-3.91964
-3.75891
-3.59818
-3.43742
-3.2766
-3.11572
-2.95475
-2.7937
-2.63259
-2.47147
-2.31047
-2.1498
-1.98984
-1.83097
-1.67294
-1.51416
-1.35312
-1.19301
-1.01901
-0.863872
-0.718559
-0.57164
-0.420393
0.420393
0.57164
0.718559
0.863872
1.01901
1.19301
1.35312
1.51416
1.67294
1.83097
1.98984
2.1498
2.31047
2.47147
2.63259
2.7937
2.95475
3.11572
3.2766
3.43742
3.59818
3.75891
3.91964
-3.9197
-3.75909
-3.59848
-3.43784
-3.27715
-3.11639
-2.95558
-2.79471
-2.63382
-2.47297
-2.31225
-2.15184
-1.99191
-1.83254
-1.67347
-1.51405
-1.35388
-1.19388
-1.03402
-0.875673
-0.719409
-0.561506
-0.383777
-0.225364
-0.076577
0.0765763
0.225365
0.383777
0.561506
0.719409
0.875674
1.03402
1.19388
1.35388
1.51405
1.67347
1.83254
1.99191
2.15184
2.31225
2.47297
2.63382
2.79471
2.95558
3.11639
3.27715
3.43784
3.59848
3.75909
3.9197
-3.91975
-3.75925
-3.59875
-3.43821
-3.27764
-3.11702
-2.95636
-2.79566
-2.63496
-2.47431
-2.31378
-2.15349
-1.9935
-1.8338
-1.67425
-1.51458
-1.3547
-1.1949
-1.03539
-0.876626
-0.718457
-0.559153
-0.397538
-0.237089
-0.0789654
0.0789661
0.237088
0.397538
0.559153
0.718458
0.876626
1.03539
1.1949
1.3547
1.51458
1.67425
1.8338
1.9935
2.15349
2.31378
2.47431
2.63496
2.79566
2.95636
3.11702
3.27764
3.43821
3.59875
3.75925
3.91975
-3.9198
-3.75939
-3.59898
-3.43855
-3.27808
-3.11758
-2.95705
-2.7965
-2.63595
-2.47545
-2.31506
-2.15482
-1.99477
-1.8349
-1.67512
-1.51534
-1.35552
-1.1958
-1.03629
-0.877123
-0.718076
-0.558469
-0.398143
-0.238246
-0.0793294
0.0793294
0.238246
0.398143
0.558469
0.718076
0.877123
1.03629
1.1958
1.35552
1.51534
1.67512
1.8349
1.99477
2.15482
2.31506
2.47545
2.63595
2.7965
2.95705
3.11758
3.27808
3.43855
3.59898
3.75939
3.9198
-3.91984
-3.75951
-3.59918
-3.43883
-3.27846
-3.11807
-2.95765
-2.79721
-2.63679
-2.47641
-2.3161
-2.1559
-1.99582
-1.83585
-1.67596
-1.51611
-1.35629
-1.19655
-1.03696
-0.87751
-0.718081
-0.558424
-0.398545
-0.238852
-0.0795667
0.0795667
0.238852
0.398545
0.558424
0.718081
0.87751
1.03696
1.19655
1.35629
1.51611
1.67596
1.83585
1.99582
2.1559
2.3161
2.47641
2.63679
2.79721
2.95765
3.11807
3.27846
3.43883
3.59918
3.75951
3.91984
-3.91987
-3.75961
-3.59935
-3.43907
-3.27878
-3.11847
-2.95814
-2.7978
-2.63748
-2.47718
-2.31694
-2.15677
-1.99668
-1.83666
-1.67671
-1.51681
-1.35696
-1.19718
-1.03749
-0.877872
-0.718265
-0.558576
-0.398833
-0.239181
-0.0797021
0.0797021
0.239181
0.398833
0.558576
0.718265
0.877872
1.03749
1.19718
1.35696
1.51681
1.67671
1.83666
1.99668
2.15677
2.31694
2.47718
2.63748
2.7978
2.95814
3.11847
3.27878
3.43907
3.59935
3.75961
3.91987
-3.9199
-3.75969
-3.59948
-3.43926
-3.27903
-3.11879
-2.95853
-2.79827
-2.63802
-2.47778
-2.31759
-2.15745
-1.99736
-1.83732
-1.67734
-1.51741
-1.35752
-1.19769
-1.03792
-0.878203
-0.718496
-0.558775
-0.399049
-0.239377
-0.0797798
0.0797798
0.239377
0.399049
0.558775
0.718496
0.878203
1.03792
1.19769
1.35752
1.51741
1.67734
1.83732
1.99736
2.15745
2.31759
2.47778
2.63802
2.79827
2.95853
3.11879
3.27903
3.43926
3.59948
3.75969
3.9199
-3.91992
-3.75975
-3.59958
-3.43941
-3.27922
-3.11903
-2.95883
-2.79862
-2.63842
-2.47824
-2.31808
-2.15796
-1.99787
-1.83783
-1.67783
-1.51788
-1.35796
-1.19809
-1.03827
-0.878482
-0.718715
-0.558956
-0.399213
-0.239501
-0.0798282
0.0798282
0.239501
0.399213
0.558956
0.718715
0.878482
1.03827
1.19809
1.35796
1.51788
1.67783
1.83783
1.99787
2.15796
2.31808
2.47824
2.63842
2.79862
2.95883
3.11903
3.27922
3.43941
3.59958
3.75975
3.91992
-3.91993
-3.75979
-3.59965
-3.43951
-3.27935
-3.11919
-2.95903
-2.79886
-2.6387
-2.47855
-2.31841
-2.15831
-1.99823
-1.83819
-1.67818
-1.51821
-1.35828
-1.19838
-1.03852
-0.87869
-0.718885
-0.559096
-0.399327
-0.23958
-0.0798575
0.0798575
0.23958
0.399327
0.559096
0.718885
0.87869
1.03852
1.19838
1.35828
1.51821
1.67818
1.83819
1.99823
2.15831
2.31841
2.47855
2.6387
2.79886
2.95903
3.11919
3.27935
3.43951
3.59965
3.75979
3.91993
-3.91994
-3.75982
-3.5997
-3.43956
-3.27943
-3.11929
-2.95914
-2.799
-2.63886
-2.47872
-2.3186
-2.1585
-1.99844
-1.83839
-1.67838
-1.5184
-1.35846
-1.19855
-1.03867
-0.878816
-0.718987
-0.559179
-0.399391
-0.239624
-0.0798725
0.0798725
0.239624
0.399391
0.559179
0.718987
0.878816
1.03867
1.19855
1.35846
1.5184
1.67838
1.83839
1.99844
2.1585
2.3186
2.47872
2.63886
2.799
2.95914
3.11929
3.27943
3.43956
3.5997
3.75982
3.91994
)
;

boundaryField
{
    outlet
    {
        type            calculated;
        value           nonuniform List<scalar> 
50
(
-4
-4
-4
-4
-4
-4
-4
-4
-4
-4
-4
-4
-4
-4
-4
-4
-4
-4
-4
-4
-4
-4
-4
-4
-4
-4
-4
-4
-4
-4
-4
-4
-4
-4
-4
-4
-4
-4
-4
-4
-4
-4
-4
-4
-4
-4
-4
-4
-4
-4
)
;
    }
    inlet
    {
        type            calculated;
        value           nonuniform List<scalar> 
50
(
4
4
4
4
4
4
4
4
4
4
4
4
4
4
4
4
4
4
4
4
4
4
4
4
4
4
4
4
4
4
4
4
4
4
4
4
4
4
4
4
4
4
4
4
4
4
4
4
4
4
)
;
    }
    walls
    {
        type            calculated;
        value           nonuniform List<scalar> 
100
(
-3.91994
-3.75983
-3.59971
-3.43959
-3.27945
-3.11932
-2.95918
-2.79905
-2.63891
-2.47879
-2.31867
-2.15858
-1.99851
-1.83847
-1.67847
-1.51849
-1.35855
-1.19863
-1.03875
-0.878894
-0.719063
-0.559249
-0.399451
-0.239665
-0.0798875
0.0798875
0.239665
0.399451
0.559249
0.719063
0.878894
1.03875
1.19863
1.35855
1.51849
1.67847
1.83847
1.99851
2.15858
2.31867
2.47879
2.63891
2.79905
2.95918
3.11932
3.27945
3.43958
3.59971
3.75983
3.91994
-3.91994
-3.75983
-3.59971
-3.43958
-3.27945
-3.11932
-2.95918
-2.79905
-2.63891
-2.47879
-2.31867
-2.15858
-1.99851
-1.83847
-1.67847
-1.51849
-1.35854
-1.19863
-1.03875
-0.878894
-0.719063
-0.559249
-0.399451
-0.239665
-0.0798875
0.0798875
0.239665
0.399451
0.559249
0.719063
0.878894
1.03875
1.19863
1.35855
1.51849
1.67847
1.83847
1.99851
2.15858
2.31867
2.47879
2.63891
2.79905
2.95918
3.11932
3.27945
3.43959
3.59971
3.75983
3.91994
)
;
    }
    sides
    {
        type            empty;
    }
    mesh
    {
        type            calculated;
        value           nonuniform List<scalar> 
92
(
-0.209256
-0.072034
0.072034
0.209256
-0.847185
-0.71352
-0.573426
-0.389178
0.573426
0.71352
0.847185
-1.17348
-1.01446
1.01446
1.17348
-1.32639
1.32639
-1.64515
-1.51113
1.51114
1.64515
-1.76956
-1.88548
-1.99547
-2.12305
-2.20881
-2.28785
2.28785
-2.35673
-2.39727
-2.43977
-2.47355
-2.49266
-2.50617
-2.50617
-2.49266
-2.43977
-2.39727
-2.35672
-2.28785
-2.20881
-2.12305
-1.88548
-1.51114
-1.32639
0.389178
1.76956
1.88548
1.99547
2.12305
2.20881
2.35672
2.39727
2.43977
2.47355
2.49266
2.50617
2.50617
-2.47355
2.49266
2.47355
2.43977
2.39727
2.35672
2.28785
2.20881
2.12305
-1.99546
1.99547
-1.76956
1.88548
1.76956
-1.64515
1.51114
1.64515
1.32639
-1.17349
-1.01446
1.01446
1.17348
-0.847185
-0.71352
-0.573426
-0.389178
0.573426
0.71352
0.847185
-0.209256
-0.072034
0.072034
0.389178
0.209256
)
;
    }
}


// ************************************************************************* //
