/*--------------------------------*- C++ -*----------------------------------*\
| =========                 |                                                 |
| \\      /  F ield         | OpenFOAM: The Open Source CFD Toolbox           |
|  \\    /   O peration     | Version:  2412                                  |
|   \\  /    A nd           | Website:  www.openfoam.com                      |
|    \\/     M anipulation  |                                                 |
\*---------------------------------------------------------------------------*/
FoamFile
{
    version     2.0;
    format      ascii;
    arch        "LSB;label=32;scalar=64";
    class       volScalarField;
    location    "0";
    object      Cz;
}
// * * * * * * * * * * * * * * * * * * * * * * * * * * * * * * * * * * * * * //

dimensions      [0 1 0 0 0 0 0];

internalField   nonuniform List<scalar> 
1728
(
0
-5.47827e-18
9.63655e-20
1.85727e-18
0
3.61532e-18
-9.63495e-20
0
9.63442e-20
0
0
3.69775e-18
-1.84746e-18
9.63231e-20
-3.59154e-18
0
9.62969e-20
0
0
-1.82874e-18
0
1.81861e-18
-7.06119e-18
1.71294e-18
-1.9032e-18
-9.64072e-20
-3.52234e-18
1.81368e-18
-9.65118e-20
0
1.82897e-18
1.83303e-18
5.41287e-18
1.74288e-18
-3.58725e-18
-3.59166e-18
0
-1.84755e-18
0
0
3.70346e-18
0
-9.64002e-20
0
5.47123e-18
-3.617e-18
0
9.63815e-20
5.47829e-18
0
5.47827e-18
0
0
0
5.47314e-18
0
0
1.9271e-19
-5.65434e-18
-3.70314e-18
0
-3.69834e-18
0
1.94276e-18
3.88237e-18
-1.92692e-19
-3.68201e-18
1.92676e-19
0
1.73596e-18
-3.6557e-18
-1.91895e-18
1.91352e-18
-1.90896e-18
0
-1.92794e-19
0
5.54848e-18
1.91923e-18
-1.92441e-18
3.66477e-18
-1.73949e-18
0
-1.92813e-19
0
1.74849e-18
1.92798e-19
1.92787e-19
3.69842e-18
0
-1.94799e-18
5.65446e-18
0
0
1.95213e-18
-3.71303e-18
0
0
1.92747e-19
5.67102e-18
-9.63655e-20
0
0
3.71344e-18
1.92718e-19
1.92715e-19
-1.9271e-19
-4.0914e-18
3.5113e-18
0
0
3.89063e-18
0
0
-1.92705e-19
0
0
5.61863e-18
0
-1.93239e-18
0
3.65263e-18
2.10865e-18
0
-1.90699e-18
0
-7.44931e-18
7.27977e-18
0
0
0
0
3.87445e-18
0
0
-1.74925e-18
0
-1.92782e-19
3.69799e-18
0
0
1.92763e-19
0
1.92763e-19
-2.14433e-18
-1.92755e-19
-3.90621e-18
0
1.92744e-19
1.92742e-19
-1.85727e-18
0
-3.71344e-18
0
-1.95159e-18
1.95066e-18
-1.75696e-18
-1.75582e-18
0
-1.94634e-18
1.94553e-18
1.92713e-19
-1.94403e-18
0
-3.69212e-18
5.43891e-18
0
-1.92726e-19
-7.36929e-18
-2.12991e-18
-1.92654e-19
0
-1.92506e-19
0
7.23488e-18
-2.09807e-18
0
1.92998e-19
1.92762e-18
0
-1.92826e-19
0
0
0
-1.94152e-18
3.69219e-18
-1.92784e-19
5.63951e-18
0
2.13836e-18
0
0
-3.89716e-18
-1.94972e-18
0
1.95163e-18
0
-1.92747e-19
0
-5.6682e-18
0
-5.47314e-18
-1.92718e-19
-1.92715e-19
3.70871e-18
-7.41305e-18
0
5.45623e-18
1.94612e-18
-5.64242e-18
-5.64049e-18
1.94403e-18
-1.75106e-18
-1.94358e-18
1.94315e-18
0
0
1.94173e-18
1.94263e-18
-1.92789e-19
0
-1.9251e-19
-1.72903e-18
-3.43177e-18
-1.92672e-19
0
0
1.92215e-18
0
-1.92848e-19
-1.94363e-18
0
-1.92779e-19
0
0
1.92787e-19
0
0
-4.08096e-18
1.92766e-19
-1.94511e-18
0
0
0
0
0
0
0
3.71302e-18
-3.71334e-18
-3.61532e-18
0
-1.92715e-19
0
0
0
-3.70128e-18
-1.94557e-18
1.92678e-19
1.92686e-19
0
0
-1.92739e-19
-1.94411e-18
1.75152e-18
1.92731e-19
0
0
0
0
0
1.94811e-18
3.66154e-18
0
1.92662e-19
-1.89495e-18
0
-1.93336e-19
1.93025e-19
-1.9556e-18
0
0
0
1.92782e-19
5.44589e-18
0
-4.08104e-18
1.92777e-19
-3.69348e-18
-1.94301e-18
-1.9276e-19
1.92752e-19
1.94564e-18
-3.70134e-18
-1.9275e-19
3.8993e-18
1.92744e-19
-1.92742e-19
0
0
9.63495e-20
0
1.9271e-19
1.75696e-18
0
0
0
7.77528e-18
-1.74958e-18
5.43835e-18
0
3.69098e-18
3.69463e-18
0
0
0
0
-1.75171e-18
7.4117e-18
5.69292e-18
-1.78423e-18
3.75577e-18
-1.93635e-18
0
-1.69456e-18
1.93079e-19
0
1.745e-18
-5.53786e-18
0
0
0
3.69618e-18
0
-3.89147e-18
0
1.94572e-18
0
-3.69102e-18
0
-3.68988e-18
-1.92758e-19
1.9439e-18
-1.92747e-19
0
0
-1.94971e-18
0
0
1.92726e-19
0
-1.92712e-19
-1.9494e-18
1.75582e-18
-5.45623e-18
1.94557e-18
-7.77528e-18
0
1.94013e-18
1.7462e-18
0
-3.49537e-18
0
0
0
3.70603e-18
1.94383e-18
3.88622e-18
0
0
0
0
0
1.91063e-19
1.88755e-18
-1.92839e-19
0
1.95884e-18
3.86197e-18
2.00683e-18
0
0
0
0
-1.75666e-18
0
0
0
-3.49537e-18
1.92758e-19
0
1.94023e-18
1.92747e-19
5.63894e-18
0
-5.45628e-18
-1.94855e-18
1.94942e-18
-1.75745e-18
-5.46558e-18
-9.63442e-20
0
0
0
-1.94612e-18
-1.92678e-19
1.74958e-18
-1.94013e-18
0
1.74357e-18
-1.93573e-18
0
0
1.95372e-18
0
1.95727e-18
-5.63176e-18
0
-5.59954e-18
-1.95755e-18
5.93188e-18
1.95797e-19
0
3.6521e-18
0
-2.1142e-18
0
-1.66417e-18
-1.90545e-19
-4.07328e-18
0
5.60128e-18
0
0
0
0
0
1.75103e-18
1.74501e-18
0
-1.74357e-18
-1.93803e-18
-1.74748e-18
3.88464e-18
1.92742e-19
5.64574e-18
-1.92728e-19
-1.94833e-18
1.92723e-19
0
0
3.70314e-18
0
1.94634e-18
5.64242e-18
-1.92686e-19
-5.43835e-18
-1.7462e-18
-1.74357e-18
0
0
1.92581e-19
0
0
0
1.97696e-18
-3.85933e-18
-1.93587e-19
-4.35116e-18
0
0
0
0
0
0
-4.177e-18
2.80418e-19
0
-1.92552e-19
-7.3398e-18
0
0
1.95953e-18
0
0
1.9318e-18
0
1.74357e-18
0
-3.49712e-18
-1.92734e-19
0
0
1.92726e-19
-3.70315e-18
0
0
0
0
-1.94553e-18
5.64049e-18
0
0
0
1.93573e-18
0
0
0
0
0
1.953e-19
-1.94451e-19
5.70199e-18
2.50763e-18
0
0
2.16856e-18
-8.67988e-18
0
-1.92431e-19
1.9277e-19
0
-1.9276e-19
0
0
-1.74311e-18
0
3.68966e-18
1.75019e-18
0
-1.92726e-19
-1.94636e-18
1.92718e-19
-3.70062e-18
-3.69775e-18
3.69834e-18
-3.89063e-18
-1.92713e-19
-1.94403e-18
0
-1.92721e-19
3.49537e-18
0
-1.92581e-19
0
0
5.3358e-18
0
0
0
0
0
1.88294e-18
0
1.93089e-19
0
-1.92747e-19
-3.84946e-18
0
0
3.49537e-18
0
1.7503e-18
0
0
3.69793e-18
3.89106e-18
1.75254e-18
1.84746e-18
0
0
1.94403e-18
1.75106e-18
1.92739e-19
-3.69463e-18
0
0
0
0
-5.3358e-18
0
-5.98358e-18
-1.95558e-18
0
0
0
0
0
0
0
0
0
-1.92728e-19
-3.69458e-18
1.92718e-19
0
-4.08076e-18
1.92712e-19
1.75157e-18
1.92702e-19
-9.63231e-20
-1.94276e-18
0
0
1.94358e-18
1.94411e-18
0
0
-1.95372e-18
0
0
0
5.98358e-18
0
0
5.84383e-18
0
-1.92724e-19
0
0
0
1.92717e-19
-3.88813e-18
0
-1.9271e-19
0
-3.6928e-18
1.92697e-19
3.59154e-18
-3.88237e-18
1.92705e-19
3.69212e-18
-1.94315e-18
-1.75152e-18
0
0
0
0
-1.953e-19
0
1.95558e-18
-2.15178e-18
-7.90768e-18
2.02033e-18
0
-1.92746e-19
3.71031e-18
-1.92717e-19
1.75152e-18
5.44396e-18
-1.92704e-19
0
-1.74849e-18
-3.68792e-18
0
1.92692e-19
0
-5.63146e-18
0
-1.92731e-19
0
-3.70603e-18
-1.95727e-18
-1.97696e-18
1.94451e-19
0
0
0
1.88486e-18
0
-1.78402e-18
0
0
1.94566e-18
0
1.92704e-19
3.30465e-18
-1.92691e-19
0
1.92681e-19
-9.62969e-20
3.68201e-18
0
-1.92718e-19
-3.69088e-18
0
1.9439e-18
-1.94389e-18
5.63176e-18
3.85933e-18
-5.70199e-18
0
0
0
7.3387e-18
0
-3.69535e-18
-3.88785e-18
0
1.9271e-19
1.92696e-19
0
0
0
0
-1.92676e-19
-5.61863e-18
1.92726e-19
-1.94173e-18
0
-1.92744e-19
0
0
1.93587e-19
-2.50763e-18
0
-1.92942e-19
1.74937e-18
1.92707e-19
1.92744e-19
0
0
0
5.42591e-18
-5.61224e-18
0
0
0
0
7.36929e-18
-1.94263e-18
0
-5.46234e-18
-1.92743e-19
5.59954e-18
4.35116e-18
0
0
4.36916e-18
-3.47688e-18
-3.69901e-18
-1.9493e-18
0
1.74986e-18
5.43056e-18
1.93516e-18
1.92652e-19
1.9292e-18
1.82874e-18
-1.73596e-18
1.93239e-18
2.12991e-18
1.92789e-19
1.7593e-18
-5.69292e-18
3.74216e-18
0
-1.97698e-18
1.87301e-18
0
1.93093e-19
0
0
-1.94356e-18
3.48897e-18
-1.93236e-18
1.92859e-18
1.92511e-18
0
3.6557e-18
0
1.92654e-19
0
0
1.97759e-18
0
0
4.49114e-18
-4.29053e-18
0
-1.93777e-19
-1.97734e-18
0
0
0
-1.92612e-19
0
0
-1.81861e-18
1.91895e-18
-3.65263e-18
0
1.9251e-19
0
3.94838e-18
0
-2.1399e-18
5.31812e-18
-5.21489e-18
1.94411e-18
-3.86269e-18
0
0
0
-1.73467e-18
-3.65261e-18
0
3.63735e-18
7.06119e-18
-1.91351e-18
1.72347e-18
1.92506e-19
1.72903e-18
-3.66154e-18
1.93635e-18
3.7182e-18
1.71552e-19
0
0
0
-5.67438e-18
0
-3.85381e-18
1.92141e-18
0
5.55556e-18
-7.26879e-18
-7.25393e-18
-1.71294e-18
0
-5.53824e-18
0
3.43177e-18
0
1.90021e-18
7.19134e-18
0
0
-1.89339e-18
0
3.81057e-18
-3.62417e-18
7.44703e-18
-3.62793e-18
0
0
0
1.9064e-18
1.90699e-18
1.92695e-19
1.90097e-18
0
1.69456e-18
-1.93365e-19
2.12259e-18
-2.02268e-18
0
-3.58153e-18
1.92492e-19
1.90088e-18
-1.90502e-18
-1.71427e-18
1.90638e-18
1.92709e-19
-1.05524e-17
7.2403e-18
0
-9.14042e-18
1.9012e-18
1.93002e-19
0
1.92839e-19
0
0
0
1.92726e-19
0
1.92822e-19
0
0
0
1.9033e-18
3.52234e-18
0
7.44931e-18
0
0
0
0
0
0
0
0
0
7.23907e-18
-5.53379e-18
7.44823e-18
-7.44923e-18
7.25091e-18
-3.61871e-18
-1.81368e-18
-5.54848e-18
-7.27977e-18
-1.92998e-19
-1.92215e-18
1.93336e-19
-1.745e-18
-1.95884e-18
1.66417e-18
0
0
1.68267e-18
-3.72411e-18
-1.93915e-18
3.8564e-18
1.92217e-18
-1.92988e-19
-7.66555e-18
3.63468e-18
0
9.65118e-20
-1.91923e-18
0
-1.92762e-18
0
-1.93025e-19
5.53786e-18
-3.86197e-18
1.90545e-19
0
0
0
0
3.75625e-18
1.93032e-19
-1.92984e-19
0
3.65293e-18
0
1.91525e-18
0
1.92441e-18
0
0
1.92848e-19
1.9556e-18
0
-2.00683e-18
4.07328e-18
4.177e-18
4.0767e-18
0
3.82137e-18
-1.78423e-18
3.71835e-18
0
1.93395e-18
1.92854e-19
-1.73154e-18
0
-1.82897e-18
-3.66477e-18
0
1.92826e-19
1.94363e-18
0
0
0
0
-2.80418e-19
1.7645e-19
-5.48392e-18
0
0
-1.95198e-18
3.6944e-18
-3.68175e-18
-1.93254e-18
-1.9288e-18
0
-1.83303e-18
1.73949e-18
1.92828e-19
5.62332e-18
0
0
0
0
-5.60128e-18
0
0
0
3.20564e-18
3.47688e-18
0
-1.9491e-18
-3.70084e-18
-1.74986e-18
0
-1.93535e-18
1.93231e-18
1.9294e-18
-5.41287e-18
0
0
1.93944e-18
1.92779e-19
0
-3.69618e-18
0
0
1.92552e-19
-2.16856e-18
0
0
-1.74937e-18
-1.9281e-19
-1.94447e-18
1.94373e-18
0
0
0
1.7423e-18
-5.60561e-18
-1.74288e-18
1.92813e-19
0
0
0
-1.92782e-19
0
0
0
7.3398e-18
8.67988e-18
0
5.20731e-18
0
-3.86542e-18
5.63385e-18
1.94421e-18
0
0
3.88358e-18
0
3.68527e-18
0
0
3.58725e-18
0
0
1.94152e-18
0
-5.44589e-18
3.89147e-18
1.75666e-18
0
0
0
-1.88294e-18
0
0
0
0
3.76059e-18
1.95728e-18
3.89885e-18
-3.89143e-18
5.44587e-18
1.92765e-19
1.94151e-18
1.94058e-18
-1.92803e-19
0
3.59166e-18
-1.74849e-18
1.74925e-18
-3.69219e-18
-1.92787e-19
0
0
0
0
0
1.92431e-19
0
0
-2.1163e-18
-2.06763e-18
0
-1.91768e-19
1.92373e-19
0
-1.92699e-19
-1.92742e-19
5.63679e-18
-3.69217e-18
-7.57538e-18
3.49697e-18
-5.62845e-18
0
-1.92798e-19
0
1.92784e-19
0
-3.31003e-18
3.69877e-18
0
0
-1.95953e-18
-1.9277e-19
-1.93089e-19
0
0
0
0
0
1.95779e-18
0
5.66692e-18
-1.92604e-19
5.64439e-18
3.50281e-18
0
0
0
3.88569e-18
1.92797e-19
1.84755e-18
-1.92787e-19
1.92782e-19
-5.63951e-18
0
-1.92777e-19
0
0
-1.75103e-18
0
0
0
0
-5.84383e-18
2.15178e-18
0
0
2.1163e-18
0
0
-1.93766e-19
0
0
1.75103e-18
0
0
0
-1.94382e-18
1.94409e-18
1.92787e-19
0
1.94392e-18
0
-3.69842e-18
-3.69799e-18
0
4.08096e-18
3.69348e-18
3.69102e-18
3.49537e-18
-1.74501e-18
0
1.9276e-19
1.92747e-19
0
0
-1.93584e-19
-1.93702e-19
0
-5.20731e-18
-2.00283e-19
0
0
1.93766e-19
0
-1.93142e-19
1.92913e-19
3.87565e-18
0
0
1.92773e-19
3.88821e-18
0
0
1.75282e-18
1.92792e-19
0
0
0
-2.13836e-18
-1.92766e-19
1.94301e-18
0
-1.92758e-19
0
-1.9318e-18
0
3.84946e-18
0
1.92724e-19
0
1.84446e-18
0
0
0
0
0
0
3.87997e-18
-2.01751e-18
-1.95779e-18
0
1.93142e-19
0
-1.932e-18
1.93598e-18
0
0
1.94303e-18
0
-1.9279e-19
0
-3.89371e-18
-3.7007e-18
-3.70346e-18
1.94799e-18
0
0
1.94511e-18
1.9276e-19
3.68988e-18
0
1.74357e-18
0
0
0
0
0
0
1.78402e-18
-7.3387e-18
1.92942e-19
-4.36916e-18
-1.87301e-18
4.29053e-18
5.21489e-18
0
0
0
0
-3.53465e-18
-3.20564e-18
0
3.86542e-18
-3.76059e-18
1.91768e-19
0
0
-1.92913e-19
1.932e-18
0
-1.74357e-18
-1.92845e-19
3.49712e-18
0
-1.94514e-18
-1.94644e-18
0
0
0
0
-5.65446e-18
-1.92763e-19
0
0
-1.92752e-19
1.92758e-19
-1.94023e-18
1.93803e-18
-1.74357e-18
1.74311e-18
0
0
0
1.92746e-19
0
0
-1.74937e-18
3.47688e-18
0
0
-1.94411e-18
0
0
3.85192e-18
-4.02858e-18
0
-1.46865e-18
-1.89703e-19
-4.07074e-18
0
-3.47688e-18
1.74937e-18
-5.63385e-18
-1.95728e-18
-1.92373e-19
-5.66692e-18
-1.75103e-18
-3.87565e-18
-1.93598e-18
1.74357e-18
0
5.62813e-18
-1.74958e-18
0
0
-5.45698e-18
1.9279e-19
-5.65449e-18
1.92782e-19
9.64002e-20
0
0
3.89716e-18
0
-1.94564e-18
-1.9439e-18
-1.92747e-19
1.74748e-18
0
0
-3.49537e-18
1.92728e-19
0
-3.71031e-18
0
3.69535e-18
-1.92707e-19
3.69901e-18
-1.93093e-19
1.93777e-19
3.86269e-18
5.67438e-18
1.89339e-18
0
-1.88631e-18
0
1.96008e-18
0
-2.00619e-18
-1.91996e-19
3.69899e-18
-3.50096e-18
1.92935e-19
-3.89885e-18
0
1.92604e-19
0
0
0
1.92845e-19
-5.62813e-18
0
5.83192e-18
0
1.94731e-18
3.89722e-18
0
0
3.90079e-18
0
0
-1.92763e-19
1.94972e-18
0
3.70134e-18
1.92747e-19
-5.63894e-18
-3.88464e-18
3.49712e-18
-3.68966e-18
0
3.69458e-18
0
0
-1.94566e-18
3.88785e-18
-1.92744e-19
1.9493e-18
0
1.97734e-18
0
0
0
-5.4685e-18
0
-3.80444e-18
1.93915e-18
1.97468e-18
0
0
-1.92616e-19
1.9275e-19
1.94403e-18
3.89143e-18
1.92699e-19
-5.64439e-18
0
1.92773e-19
-3.68973e-18
-3.49712e-18
1.74958e-18
-5.83192e-18
0
-3.7014e-18
0
-1.9279e-19
1.92784e-19
0
1.92774e-19
-5.47123e-18
-1.95213e-18
2.14433e-18
0
-1.92752e-19
-1.92747e-19
0
0
-1.92742e-19
1.92734e-19
-1.75019e-18
-1.7503e-18
-1.92718e-19
3.69552e-18
0
0
0
0
0
0
0
0
3.85381e-18
-3.81057e-18
1.70194e-18
0
3.81286e-18
-3.8564e-18
1.9303e-19
-3.91076e-18
-1.92563e-19
0
-1.94373e-18
0
-5.44587e-18
1.92742e-19
-3.50281e-18
0
-1.94307e-18
1.75019e-18
0
0
0
0
-5.65257e-18
0
0
0
1.92774e-19
5.66398e-18
3.617e-18
3.71303e-18
1.92755e-19
-1.95163e-18
0
0
0
5.45628e-18
-5.64574e-18
0
0
0
0
0
-5.44396e-18
-1.92704e-19
-1.9271e-19
0
-1.74986e-18
1.94356e-18
0
0
-1.92141e-18
3.62417e-18
1.92584e-19
0
5.53379e-18
-1.92217e-18
1.92984e-19
0
-3.6944e-18
1.74986e-18
0
0
1.92763e-19
-5.63679e-18
0
1.94382e-18
-3.88821e-18
0
1.94514e-18
0
-1.94731e-18
1.94851e-18
3.7065e-18
0
0
1.92776e-19
-3.71305e-18
5.66644e-18
0
0
3.90621e-18
0
0
-1.92744e-19
1.94971e-18
1.94855e-18
1.92728e-19
0
1.92726e-19
0
4.08076e-18
1.9271e-19
1.92704e-19
-3.30465e-18
-1.92696e-19
0
-5.43056e-18
-3.48897e-18
0
1.73467e-18
0
-7.44703e-18
0
-1.90517e-18
-7.44823e-18
1.92988e-19
0
-1.93395e-18
3.68175e-18
5.43064e-18
0
0
5.63159e-18
3.69217e-18
0
-1.94409e-18
0
1.9279e-19
1.94644e-18
5.45698e-18
-3.89722e-18
1.9279e-19
3.70857e-18
0
0
3.71349e-18
-1.76074e-18
7.62192e-18
-9.63815e-20
0
0
1.92747e-19
0
1.92742e-19
0
-1.94942e-18
1.94833e-18
-1.92726e-19
1.94636e-18
-3.69793e-18
-1.92712e-19
0
0
1.92691e-19
0
-5.42591e-18
-1.93516e-18
1.93236e-18
1.92612e-19
3.65261e-18
-5.55556e-18
3.62793e-18
1.52159e-18
0
5.53872e-18
0
-3.65293e-18
-1.92854e-19
1.93254e-18
0
5.42603e-18
-3.68527e-18
-1.94058e-18
7.57538e-18
0
-1.92787e-19
0
0
0
5.65237e-18
-3.89895e-18
-1.92784e-19
0
-1.92776e-19
-3.71349e-18
0
0
0
-5.47829e-18
-1.92747e-19
-1.92744e-19
0
-3.71302e-18
0
0
1.75745e-18
-1.92723e-19
3.70315e-18
-1.92718e-19
-3.89106e-18
-1.75157e-18
3.6928e-18
1.74849e-18
0
0
5.61224e-18
-1.92652e-19
-1.92859e-18
0
0
7.26879e-18
0
1.90638e-18
1.90645e-18
0
-7.46221e-18
0
1.73154e-18
1.9288e-18
-1.93231e-18
-1.7423e-18
0
1.92803e-19
-3.49697e-18
-3.88569e-18
0
-1.75282e-18
3.89371e-18
0
-1.92787e-19
-1.95024e-18
0
-1.92774e-19
3.71305e-18
1.76074e-18
0
0
5.67104e-18
0
-5.67102e-18
-1.92742e-19
5.6682e-18
3.71334e-18
0
-1.92726e-19
5.46558e-18
0
0
3.70062e-18
-1.75254e-18
-1.92702e-19
-1.92697e-19
3.68792e-18
-1.92681e-19
0
0
-1.9292e-18
-1.92511e-18
0
-3.63735e-18
7.25393e-18
0
1.92709e-19
7.22764e-18
3.61871e-18
0
-1.91525e-18
0
0
-1.9294e-18
5.60561e-18
0
0
5.62845e-18
-1.92797e-19
-1.94392e-18
-1.92792e-19
3.7007e-18
0
-1.92782e-19
-3.90079e-18
-1.92774e-19
-5.66398e-18
-5.66644e-18
-7.62192e-18
0
-5.67104e-18
0
)
;

boundaryField
{
    outlet
    {
        type            calculated;
        value           uniform 0;
    }
    inlet
    {
        type            calculated;
        value           uniform 0;
    }
    walls
    {
        type            calculated;
        value           uniform 0;
    }
    sides
    {
        type            empty;
    }
    mesh
    {
        type            calculated;
        value           uniform 0;
    }
}


// ************************************************************************* //
