/*--------------------------------*- C++ -*----------------------------------*\
| =========                 |                                                 |
| \\      /  F ield         | OpenFOAM: The Open Source CFD Toolbox           |
|  \\    /   O peration     | Version:  2412                                  |
|   \\  /    A nd           | Website:  www.openfoam.com                      |
|    \\/     M anipulation  |                                                 |
\*---------------------------------------------------------------------------*/
FoamFile
{
    version     2.0;
    format      ascii;
    arch        "LSB;label=32;scalar=64";
    class       volScalarField;
    location    "0";
    object      Cy;
}
// * * * * * * * * * * * * * * * * * * * * * * * * * * * * * * * * * * * * * //

dimensions      [0 1 0 0 0 0 0];

internalField   nonuniform List<scalar> 
1728
(
-3.91994
-3.91993
-3.91992
-3.9199
-3.91987
-3.91984
-3.9198
-3.91975
-3.9197
-3.91964
-3.91957
-3.91949
-3.91941
-3.91932
-3.91922
-3.9191
-3.91896
-3.91881
-3.91864
-3.91843
-3.91819
-3.91793
-3.91768
-3.91747
-3.91735
-3.91735
-3.91747
-3.91768
-3.91793
-3.91819
-3.91843
-3.91864
-3.91881
-3.91896
-3.9191
-3.91922
-3.91932
-3.91941
-3.91949
-3.91957
-3.91964
-3.9197
-3.91975
-3.9198
-3.91984
-3.91987
-3.9199
-3.91992
-3.91993
-3.91994
-3.75982
-3.75979
-3.75975
-3.75969
-3.75961
-3.75951
-3.75939
-3.75925
-3.75909
-3.75891
-3.75871
-3.75849
-3.75824
-3.75798
-3.75768
-3.75735
-3.75696
-3.75653
-3.75603
-3.75544
-3.75475
-3.75398
-3.7532
-3.75256
-3.75218
-3.75218
-3.75256
-3.7532
-3.75398
-3.75475
-3.75544
-3.75603
-3.75653
-3.75696
-3.75735
-3.75768
-3.75798
-3.75824
-3.75849
-3.75871
-3.75891
-3.75909
-3.75925
-3.75939
-3.75951
-3.75961
-3.75969
-3.75975
-3.75979
-3.75982
-3.5997
-3.59965
-3.59958
-3.59948
-3.59935
-3.59918
-3.59898
-3.59875
-3.59848
-3.59818
-3.59786
-3.5975
-3.59711
-3.59669
-3.59622
-3.59569
-3.5951
-3.59444
-3.59367
-3.59276
-3.59165
-3.59036
-3.589
-3.58784
-3.58716
-3.58716
-3.58784
-3.589
-3.59036
-3.59165
-3.59276
-3.59367
-3.59444
-3.5951
-3.59569
-3.59622
-3.59669
-3.59711
-3.5975
-3.59786
-3.59818
-3.59848
-3.59875
-3.59898
-3.59918
-3.59935
-3.59948
-3.59958
-3.59965
-3.5997
-3.43956
-3.43951
-3.43941
-3.43926
-3.43907
-3.43883
-3.43855
-3.43821
-3.43784
-3.43742
-3.43697
-3.43648
-3.43597
-3.43541
-3.4348
-3.43411
-3.43335
-3.43251
-3.43156
-3.43041
-3.42894
-3.42709
-3.425
-3.42312
-3.422
-3.422
-3.42312
-3.425
-3.42709
-3.42894
-3.43041
-3.43156
-3.43251
-3.43335
-3.43411
-3.4348
-3.43541
-3.43597
-3.43648
-3.43697
-3.43742
-3.43784
-3.43821
-3.43855
-3.43883
-3.43907
-3.43926
-3.43941
-3.43951
-3.43956
-3.27943
-3.27935
-3.27922
-3.27903
-3.27878
-3.27846
-3.27808
-3.27764
-3.27715
-3.2766
-3.27603
-3.27542
-3.27479
-3.27413
-3.2734
-3.27259
-3.2717
-3.27075
-3.26971
-3.26849
-3.2668
-3.26436
-3.26125
-3.25827
-3.25645
-3.25645
-3.25827
-3.26125
-3.26436
-3.2668
-3.26849
-3.26971
-3.27075
-3.2717
-3.27259
-3.2734
-3.27413
-3.27479
-3.27542
-3.27603
-3.2766
-3.27715
-3.27764
-3.27808
-3.27846
-3.27878
-3.27903
-3.27922
-3.27935
-3.27943
-3.11929
-3.11919
-3.11903
-3.11879
-3.11847
-3.11806
-3.11758
-3.11702
-3.11639
-3.11572
-3.11501
-3.1143
-3.11358
-3.11284
-3.11203
-3.11113
-3.11013
-3.10912
-3.10814
-3.1071
-3.10553
-3.10258
-3.09798
-3.09316
-3.09021
-3.09021
-3.09316
-3.09798
-3.10258
-3.10553
-3.1071
-3.10814
-3.10912
-3.11013
-3.11113
-3.11203
-3.11284
-3.11358
-3.1143
-3.11501
-3.11572
-3.11639
-3.11702
-3.11758
-3.11806
-3.11847
-3.11879
-3.11903
-3.11919
-3.11929
-2.95914
-2.95903
-2.95883
-2.95853
-2.95814
-2.95765
-2.95705
-2.95636
-2.95558
-2.95475
-2.9539
-2.95308
-2.95231
-2.95156
-2.95075
-2.94979
-2.94866
-2.94757
-2.94675
-2.9463
-2.94561
-2.94262
-2.93573
-2.92766
-2.92293
-2.92293
-2.92766
-2.93573
-2.94262
-2.94561
-2.9463
-2.94675
-2.94757
-2.94866
-2.94979
-2.95075
-2.95156
-2.95231
-2.95308
-2.9539
-2.95475
-2.95558
-2.95636
-2.95705
-2.95765
-2.95814
-2.95853
-2.95883
-2.95903
-2.95914
-2.799
-2.79886
-2.79862
-2.79827
-2.7978
-2.79721
-2.7965
-2.79566
-2.79471
-2.7937
-2.79269
-2.79175
-2.79096
-2.79031
-2.78964
-2.78866
-2.78729
-2.786
-2.78522
-2.78572
-2.78749
-2.78617
-2.77566
-2.76163
-2.75452
-2.75452
-2.76163
-2.77566
-2.78617
-2.78749
-2.78572
-2.78522
-2.786
-2.78729
-2.78866
-2.78964
-2.79031
-2.79096
-2.79175
-2.79269
-2.7937
-2.79471
-2.79566
-2.7965
-2.79721
-2.7978
-2.79827
-2.79862
-2.79886
-2.799
-2.63886
-2.6387
-2.63842
-2.63802
-2.63748
-2.63679
-2.63595
-2.63496
-2.63382
-2.63259
-2.63136
-2.63026
-2.62948
-2.6291
-2.62886
-2.62802
-2.62612
-2.62435
-2.62299
-2.62413
-2.63082
-2.63607
-2.60702
-2.58829
-2.5891
-2.5891
-2.5883
-2.60703
-2.63607
-2.63082
-2.62413
-2.62299
-2.62435
-2.62612
-2.62802
-2.62886
-2.6291
-2.62948
-2.63026
-2.63136
-2.63259
-2.63382
-2.63496
-2.63595
-2.63679
-2.63748
-2.63802
-2.63842
-2.6387
-2.63886
-2.47872
-2.47855
-2.47824
-2.47778
-2.47718
-2.47641
-2.47545
-2.47431
-2.47297
-2.47147
-2.46993
-2.46855
-2.46769
-2.46778
-2.46865
-2.46848
-2.4653
-2.46303
-2.44732
-2.4521
-2.47562
-2.50224
-2.50413
-2.50413
-2.50224
-2.47562
-2.4521
-2.44732
-2.46303
-2.4653
-2.46848
-2.46865
-2.46778
-2.46769
-2.46855
-2.46993
-2.47148
-2.47297
-2.47431
-2.47545
-2.47641
-2.47718
-2.47778
-2.47824
-2.47855
-2.47872
-2.3186
-2.31841
-2.31808
-2.31759
-2.31694
-2.3161
-2.31506
-2.31378
-2.31225
-2.31047
-2.30849
-2.30655
-2.30527
-2.30577
-2.30913
-2.31169
-2.29228
-2.29911
-2.31944
-2.31944
-2.29911
-2.29228
-2.31169
-2.30913
-2.30577
-2.30527
-2.30655
-2.30848
-2.31047
-2.31225
-2.31378
-2.31506
-2.3161
-2.31694
-2.31759
-2.31808
-2.31841
-2.3186
-2.1585
-2.15831
-2.15796
-2.15745
-2.15677
-2.1559
-2.15482
-2.15349
-2.15184
-2.1498
-2.1473
-2.14442
-2.14182
-2.14152
-2.14915
-2.15149
-2.1604
-2.1604
-2.15149
-2.14915
-2.14152
-2.14182
-2.14442
-2.1473
-2.1498
-2.15184
-2.15349
-2.15482
-2.1559
-2.15677
-2.15745
-2.15796
-2.15831
-2.1585
-1.99844
-1.99823
-1.99787
-1.99736
-1.99668
-1.99582
-1.99477
-1.9935
-1.99191
-1.98984
-1.98698
-1.98293
-1.97767
-1.96041
-1.98017
-2.02266
-2.02266
-1.98017
-1.96041
-1.97767
-1.98293
-1.98698
-1.98984
-1.99191
-1.9935
-1.99477
-1.99582
-1.99668
-1.99736
-1.99787
-1.99823
-1.99844
-1.83839
-1.83819
-1.83783
-1.83732
-1.83666
-1.83585
-1.8349
-1.8338
-1.83254
-1.83097
-1.82858
-1.82415
-1.80316
-1.81043
-1.81043
-1.80316
-1.82415
-1.82858
-1.83097
-1.83254
-1.8338
-1.8349
-1.83585
-1.83666
-1.83732
-1.83783
-1.83819
-1.83839
-1.67838
-1.67818
-1.67783
-1.67734
-1.67671
-1.67596
-1.67512
-1.67425
-1.67347
-1.67294
-1.67276
-1.67217
-1.66264
-1.66264
-1.67217
-1.67276
-1.67294
-1.67347
-1.67425
-1.67512
-1.67596
-1.67671
-1.67734
-1.67783
-1.67818
-1.67838
-1.5184
-1.51821
-1.51788
-1.51741
-1.51681
-1.51611
-1.51534
-1.51458
-1.51405
-1.51416
-1.51618
-1.51315
-1.54004
-1.54004
-1.51315
-1.51618
-1.51416
-1.51405
-1.51458
-1.51534
-1.51611
-1.51681
-1.51741
-1.51788
-1.51821
-1.5184
-1.35846
-1.35828
-1.35796
-1.35752
-1.35696
-1.35629
-1.35552
-1.3547
-1.35388
-1.35312
-1.33939
-1.36396
-1.36396
-1.33939
-1.35312
-1.35388
-1.3547
-1.35552
-1.35629
-1.35696
-1.35752
-1.35796
-1.35828
-1.35846
-1.19855
-1.19838
-1.19809
-1.19769
-1.19718
-1.19655
-1.1958
-1.1949
-1.19388
-1.19301
-1.18773
-1.18773
-1.19301
-1.19388
-1.1949
-1.1958
-1.19655
-1.19718
-1.19769
-1.19809
-1.19838
-1.19855
-1.03867
-1.03852
-1.03827
-1.03792
-1.03749
-1.03696
-1.03629
-1.03539
-1.03402
-1.01901
-1.04734
-1.04734
-1.01901
-1.03402
-1.03539
-1.03629
-1.03696
-1.03749
-1.03792
-1.03827
-1.03852
-1.03867
-0.878816
-0.87869
-0.878482
-0.878203
-0.877872
-0.87751
-0.877123
-0.876626
-0.875673
-0.863872
-0.863872
-0.875673
-0.876626
-0.877123
-0.87751
-0.877872
-0.878203
-0.878482
-0.87869
-0.878816
-0.718987
-0.718885
-0.718715
-0.718496
-0.718265
-0.718081
-0.718076
-0.718457
-0.719409
-0.718559
-0.718559
-0.719409
-0.718457
-0.718076
-0.718081
-0.718265
-0.718496
-0.718715
-0.718885
-0.718987
-0.559179
-0.559096
-0.558956
-0.558775
-0.558576
-0.558424
-0.558469
-0.559153
-0.561506
-0.57164
-0.57164
-0.561506
-0.559153
-0.558469
-0.558424
-0.558576
-0.558775
-0.558956
-0.559096
-0.559179
-0.399391
-0.399327
-0.399213
-0.399049
-0.398833
-0.398545
-0.398143
-0.397538
-0.383777
-0.420393
-0.420393
-0.383777
-0.397538
-0.398143
-0.398545
-0.398833
-0.399049
-0.399213
-0.399327
-0.399391
-0.239624
-0.23958
-0.239501
-0.239377
-0.239181
-0.238852
-0.238246
-0.237089
-0.225364
-0.225364
-0.237089
-0.238246
-0.238852
-0.239181
-0.239377
-0.239501
-0.23958
-0.239624
-0.0798725
-0.0798575
-0.0798282
-0.0797798
-0.0797021
-0.0795667
-0.0793294
-0.0789654
-0.076577
-0.076577
-0.0789654
-0.0793294
-0.0795667
-0.0797021
-0.0797798
-0.0798282
-0.0798574
-0.0798725
0.0798725
0.0798575
0.0798282
0.0797798
0.0797021
0.0795665
0.0793291
0.0789661
0.0765763
0.0765763
0.0789661
0.0793291
0.0795665
0.0797021
0.0797798
0.0798282
0.0798575
0.0798725
0.239624
0.239581
0.239502
0.239377
0.239181
0.238851
0.238245
0.237088
0.225365
0.225365
0.237088
0.238245
0.238851
0.239181
0.239377
0.239502
0.239581
0.239624
0.399391
0.399327
0.399213
0.399049
0.398833
0.398545
0.398143
0.39754
0.383775
0.420393
0.420393
0.383775
0.39754
0.398143
0.398545
0.398833
0.399049
0.399213
0.399327
0.399391
0.559179
0.559096
0.558956
0.558775
0.558576
0.558423
0.55847
0.55915
0.561508
0.571641
0.571641
0.561508
0.55915
0.55847
0.558423
0.558576
0.558775
0.558956
0.559096
0.559179
0.718987
0.718885
0.718715
0.718496
0.718265
0.718081
0.718075
0.718458
0.719409
0.718559
0.718559
0.719409
0.718458
0.718075
0.718081
0.718265
0.718496
0.718715
0.718885
0.718987
0.878816
0.87869
0.878482
0.878203
0.877872
0.87751
0.877123
0.876627
0.875674
0.863871
0.863871
0.875674
0.876627
0.877123
0.87751
0.877872
0.878203
0.878482
0.87869
0.878816
1.03867
1.03852
1.03827
1.03792
1.03749
1.03696
1.03629
1.03539
1.03402
1.01901
1.04734
1.04734
1.01901
1.03402
1.03539
1.03629
1.03696
1.03749
1.03792
1.03827
1.03852
1.03867
1.19855
1.19838
1.19809
1.19769
1.19718
1.19655
1.1958
1.1949
1.19388
1.19301
1.18773
1.18773
1.19301
1.19388
1.1949
1.1958
1.19655
1.19718
1.19769
1.19809
1.19838
1.19855
1.35846
1.35828
1.35796
1.35752
1.35696
1.35629
1.35553
1.3547
1.35388
1.35312
1.33939
1.36396
1.36396
1.33939
1.35312
1.35388
1.3547
1.35553
1.35629
1.35696
1.35752
1.35796
1.35828
1.35846
1.5184
1.51821
1.51788
1.51741
1.51681
1.51611
1.51534
1.51458
1.51405
1.51416
1.51618
1.51315
1.54004
1.54004
1.51315
1.51618
1.51416
1.51405
1.51458
1.51534
1.51611
1.51681
1.51741
1.51788
1.51821
1.5184
1.67838
1.67818
1.67783
1.67734
1.67671
1.67596
1.67512
1.67425
1.67347
1.67294
1.67276
1.67217
1.66264
1.66264
1.67217
1.67276
1.67294
1.67347
1.67425
1.67512
1.67596
1.67671
1.67734
1.67783
1.67818
1.67838
1.83839
1.83819
1.83783
1.83732
1.83666
1.83585
1.8349
1.8338
1.83254
1.83097
1.82858
1.82415
1.80316
1.81043
1.81043
1.80316
1.82415
1.82858
1.83097
1.83254
1.8338
1.8349
1.83585
1.83666
1.83732
1.83783
1.83819
1.83839
1.99844
1.99823
1.99787
1.99736
1.99668
1.99582
1.99477
1.9935
1.99191
1.98984
1.98698
1.98293
1.97767
1.96041
1.98017
2.02266
2.02266
1.98017
1.96041
1.97767
1.98293
1.98698
1.98984
1.99191
1.9935
1.99477
1.99582
1.99668
1.99736
1.99787
1.99823
1.99844
2.1585
2.15831
2.15796
2.15745
2.15677
2.1559
2.15482
2.15349
2.15184
2.1498
2.1473
2.14442
2.14182
2.14152
2.14915
2.15149
2.1604
2.1604
2.15149
2.14915
2.14152
2.14182
2.14442
2.1473
2.1498
2.15184
2.15349
2.15482
2.1559
2.15677
2.15745
2.15796
2.15831
2.1585
2.3186
2.31841
2.31808
2.31759
2.31694
2.3161
2.31506
2.31378
2.31225
2.31047
2.30848
2.30655
2.30527
2.30577
2.30913
2.31169
2.29228
2.29911
2.31944
2.31944
2.29911
2.29228
2.31169
2.30913
2.30577
2.30527
2.30655
2.30849
2.31047
2.31225
2.31378
2.31506
2.3161
2.31694
2.31759
2.31808
2.31841
2.3186
2.47872
2.47855
2.47824
2.47778
2.47718
2.47641
2.47545
2.47431
2.47297
2.47147
2.46993
2.46855
2.46769
2.46778
2.46865
2.46848
2.4653
2.46303
2.44732
2.4521
2.47561
2.50224
2.50413
2.50413
2.50224
2.47561
2.4521
2.44732
2.46303
2.4653
2.46848
2.46865
2.46778
2.46769
2.46855
2.46993
2.47147
2.47297
2.47431
2.47545
2.47641
2.47718
2.47778
2.47824
2.47855
2.47872
2.63886
2.6387
2.63842
2.63802
2.63748
2.63679
2.63595
2.63496
2.63382
2.63259
2.63136
2.63026
2.62948
2.6291
2.62886
2.62802
2.62612
2.62435
2.62299
2.62413
2.63081
2.63607
2.60703
2.5883
2.58911
2.5891
2.5883
2.60703
2.63607
2.63081
2.62413
2.62299
2.62435
2.62612
2.62802
2.62886
2.6291
2.62948
2.63026
2.63136
2.63259
2.63382
2.63496
2.63595
2.63679
2.63748
2.63802
2.63842
2.6387
2.63886
2.799
2.79886
2.79862
2.79827
2.7978
2.79721
2.7965
2.79566
2.79471
2.7937
2.79269
2.79175
2.79096
2.79031
2.78964
2.78866
2.78729
2.786
2.78522
2.78571
2.78748
2.78617
2.77567
2.76164
2.75452
2.75452
2.76163
2.77567
2.78617
2.78748
2.78571
2.78522
2.786
2.78729
2.78866
2.78964
2.79031
2.79096
2.79175
2.79269
2.7937
2.79471
2.79566
2.7965
2.79721
2.7978
2.79827
2.79862
2.79886
2.799
2.95914
2.95903
2.95883
2.95853
2.95814
2.95764
2.95705
2.95636
2.95558
2.95475
2.9539
2.95308
2.95231
2.95156
2.95075
2.94979
2.94866
2.94757
2.94675
2.94629
2.9456
2.94262
2.93573
2.92766
2.92293
2.92293
2.92766
2.93573
2.94262
2.9456
2.94629
2.94675
2.94757
2.94866
2.94979
2.95075
2.95156
2.95231
2.95308
2.9539
2.95475
2.95558
2.95636
2.95705
2.95764
2.95814
2.95853
2.95883
2.95903
2.95914
3.11929
3.11919
3.11903
3.11878
3.11846
3.11806
3.11758
3.11702
3.11639
3.11572
3.11501
3.11429
3.11358
3.11284
3.11203
3.11113
3.11013
3.10912
3.10814
3.1071
3.10553
3.10257
3.09798
3.09316
3.09021
3.09021
3.09316
3.09798
3.10257
3.10553
3.1071
3.10814
3.10912
3.11013
3.11113
3.11203
3.11284
3.11358
3.11429
3.11501
3.11572
3.11639
3.11702
3.11758
3.11806
3.11846
3.11878
3.11903
3.11919
3.11929
3.27943
3.27935
3.27922
3.27903
3.27878
3.27846
3.27808
3.27764
3.27715
3.2766
3.27603
3.27542
3.27479
3.27413
3.2734
3.27259
3.2717
3.27075
3.26971
3.26849
3.2668
3.26436
3.26125
3.25827
3.25645
3.25645
3.25827
3.26125
3.26436
3.2668
3.26849
3.26971
3.27075
3.2717
3.27259
3.2734
3.27413
3.27479
3.27542
3.27603
3.2766
3.27715
3.27764
3.27808
3.27846
3.27878
3.27903
3.27922
3.27935
3.27943
3.43956
3.43951
3.43941
3.43926
3.43907
3.43883
3.43855
3.43821
3.43784
3.43742
3.43697
3.43648
3.43597
3.43541
3.4348
3.43411
3.43335
3.43251
3.43156
3.43041
3.42894
3.42709
3.425
3.42312
3.422
3.422
3.42312
3.425
3.42709
3.42894
3.43041
3.43156
3.43251
3.43335
3.43411
3.4348
3.43541
3.43597
3.43648
3.43697
3.43742
3.43784
3.43821
3.43855
3.43883
3.43907
3.43926
3.43941
3.43951
3.43956
3.5997
3.59965
3.59958
3.59948
3.59935
3.59918
3.59898
3.59875
3.59848
3.59818
3.59786
3.5975
3.59711
3.59669
3.59622
3.59569
3.5951
3.59444
3.59367
3.59276
3.59165
3.59036
3.589
3.58784
3.58716
3.58716
3.58784
3.589
3.59036
3.59165
3.59276
3.59367
3.59444
3.5951
3.59569
3.59622
3.59669
3.59711
3.5975
3.59786
3.59818
3.59848
3.59875
3.59898
3.59918
3.59935
3.59948
3.59958
3.59965
3.5997
3.75982
3.75979
3.75975
3.75969
3.75961
3.75951
3.75939
3.75925
3.75909
3.75891
3.75871
3.75849
3.75824
3.75798
3.75768
3.75735
3.75696
3.75653
3.75603
3.75544
3.75475
3.75398
3.7532
3.75256
3.75218
3.75218
3.75256
3.7532
3.75398
3.75475
3.75544
3.75603
3.75653
3.75696
3.75735
3.75768
3.75798
3.75824
3.75849
3.75871
3.75891
3.75909
3.75925
3.75939
3.75951
3.75961
3.75969
3.75975
3.75979
3.75982
3.91994
3.91993
3.91992
3.9199
3.91987
3.91984
3.9198
3.91975
3.9197
3.91964
3.91957
3.91949
3.91941
3.91932
3.91922
3.9191
3.91896
3.91881
3.91864
3.91843
3.91819
3.91793
3.91768
3.91747
3.91735
3.91735
3.91747
3.91768
3.91793
3.91819
3.91843
3.91864
3.91881
3.91896
3.9191
3.91922
3.91932
3.91941
3.91949
3.91957
3.91964
3.9197
3.91975
3.9198
3.91984
3.91987
3.9199
3.91992
3.91993
3.91994
)
;

boundaryField
{
    outlet
    {
        type            calculated;
        value           nonuniform List<scalar> 
50
(
-3.91994
-3.75983
-3.59971
-3.43959
-3.27945
-3.11932
-2.95918
-2.79905
-2.63891
-2.47879
-2.31867
-2.15858
-1.99851
-1.83847
-1.67847
-1.51849
-1.35855
-1.19863
-1.03875
-0.878894
-0.719063
-0.559249
-0.399451
-0.239665
-0.0798875
0.0798875
0.239665
0.399451
0.559249
0.719063
0.878894
1.03875
1.19863
1.35855
1.51849
1.67847
1.83847
1.99851
2.15858
2.31867
2.47879
2.63891
2.79905
2.95918
3.11932
3.27945
3.43958
3.59971
3.75983
3.91994
)
;
    }
    inlet
    {
        type            calculated;
        value           nonuniform List<scalar> 
50
(
-3.91994
-3.75983
-3.59971
-3.43958
-3.27945
-3.11932
-2.95918
-2.79905
-2.63891
-2.47879
-2.31867
-2.15858
-1.99851
-1.83847
-1.67847
-1.51849
-1.35854
-1.19863
-1.03875
-0.878894
-0.719063
-0.559249
-0.399451
-0.239665
-0.0798875
0.0798875
0.239665
0.399451
0.559249
0.719063
0.878894
1.03875
1.19863
1.35855
1.51849
1.67847
1.83847
1.99851
2.15858
2.31867
2.47879
2.63891
2.79905
2.95918
3.11932
3.27945
3.43959
3.59971
3.75983
3.91994
)
;
    }
    walls
    {
        type            calculated;
        value           nonuniform List<scalar> 
100
(
4
4
4
4
4
4
4
4
4
4
4
4
4
4
4
4
4
4
4
4
4
4
4
4
4
4
4
4
4
4
4
4
4
4
4
4
4
4
4
4
4
4
4
4
4
4
4
4
4
4
-4
-4
-4
-4
-4
-4
-4
-4
-4
-4
-4
-4
-4
-4
-4
-4
-4
-4
-4
-4
-4
-4
-4
-4
-4
-4
-4
-4
-4
-4
-4
-4
-4
-4
-4
-4
-4
-4
-4
-4
-4
-4
-4
-4
-4
-4
-4
-4
-4
-4
)
;
    }
    sides
    {
        type            empty;
    }
    mesh
    {
        type            calculated;
        value           nonuniform List<scalar> 
92
(
-2.49266
-2.50617
-2.50617
-2.49266
-2.35672
-2.39727
-2.43977
-2.47355
-2.43977
-2.39727
-2.35672
-2.20881
-2.28785
-2.28785
-2.20881
-2.12305
-2.12305
-1.88548
-1.99546
-1.99547
-1.88548
-1.76956
-1.64515
-1.51114
-1.32639
-1.17349
-1.01446
-1.01446
-0.847185
-0.71352
-0.573426
-0.389178
-0.209256
-0.072034
0.072034
0.209256
0.573426
0.71352
0.847185
1.01446
1.17348
1.32639
1.64515
1.99547
2.12305
-2.47355
-1.76956
-1.64515
-1.51114
-1.32639
-1.17348
-0.847185
-0.71352
-0.573426
-0.389178
-0.209256
-0.072034
0.072034
0.389178
0.209256
0.389178
0.573426
0.71352
0.847185
1.01446
1.17348
1.32639
1.51113
1.51114
1.76956
1.64515
1.76956
1.88548
1.99547
1.88548
2.12305
2.20881
2.28785
2.28785
2.20881
2.35673
2.39727
2.43977
2.47355
2.43977
2.39727
2.35672
2.49266
2.50617
2.50617
2.47355
2.49266
)
;
    }
}


// ************************************************************************* //
